Program Version,EnergyPlus, Version 25.1.0-68a4a7c774, YMD=2026.04.16 16:09
1,5,Environment Title[],Latitude[deg],Longitude[deg],Time Zone[],Elevation[m]
2,8,Day of Simulation[],Month[],Day of Month[],DST Indicator[1=yes 0=no],Hour[],StartMinute[],EndMinute[],DayType
3,5,Cumulative Day of Simulation[],Month[],Day of Month[],DST Indicator[1=yes 0=no],DayType  ! When Daily Report Variables Requested
4,2,Cumulative Days of Simulation[],Month[]  ! When Monthly Report Variables Requested
5,1,Cumulative Days of Simulation[] ! When Run Period Report Variables Requested
6,1,Calendar Year of Simulation[] ! When Annual Report Variables Requested
7,1,Environment,Site Outdoor Air Drybulb Temperature [C] !TimeStep
8,1,Environment,Site Outdoor Air Relative Humidity [%] !TimeStep
9,1,Environment,Site Wind Speed [m/s] !TimeStep
10,1,Environment,Site Wind Direction [deg] !TimeStep
11,1,Environment,Site Diffuse Solar Radiation Rate per Area [W/m2] !TimeStep
12,1,Environment,Site Direct Solar Radiation Rate per Area [W/m2] !TimeStep
13,1,SPACE5-1,Zone People Occupant Count [] !TimeStep
838,1,SPACE5-1,Zone Air Temperature [C] !TimeStep
839,1,SPACE5-1,Zone Air Relative Humidity [%] !TimeStep
902,1,SPACE5-1,Zone Thermostat Heating Setpoint Temperature [C] !TimeStep
903,1,SPACE5-1,Zone Thermostat Cooling Setpoint Temperature [C] !TimeStep
1051,1,Whole Building,Facility Total HVAC Electricity Demand Rate [W] !TimeStep
1313,1,Site,Environmental Impact Total CO2 Emissions Carbon Equivalent Mass [kg] !TimeStep
1078,1,Electricity:HVAC [J] !TimeStep
End of Data Dictionary
1,RUNPERIOD 1,  32.17,-110.88,  -7.00, 809.00
2,1, 1, 1, 0, 1, 0.00,15.00,Tuesday
7,4.4
8,65.0
9,3.875
10,145.0
11,0.0
12,0.0
13,0.0
838,19.952078551521716
839,28.21567034315664
902,12.8
903,40.0
1051,117.94755741219025
1313,0.0
1078,106152.80167097122
2,1, 1, 1, 0, 1,15.00,30.00,Tuesday
7,4.8
8,61.0
9,4.65
10,160.0
11,0.0
12,0.0
13,0.0
838,19.810963307962222
839,28.269684017603552
902,15.0
903,23.776119232177734
1051,117.94755741219025
1313,0.0
1078,106152.80167097122
2,1, 1, 1, 0, 1,30.00,45.00,Tuesday
7,5.199999999999999
8,57.0
9,5.425000000000001
10,175.0
11,0.0
12,0.0
13,0.0
838,19.672608679539138
839,28.293969297919997
902,15.0
903,23.25
1051,117.94755741219025
1313,0.0
1078,106152.80167097122
2,1, 1, 1, 0, 1,45.00,60.00,Tuesday
7,5.6
8,53.0
9,6.2
10,190.0
11,0.0
12,0.0
13,0.0
838,19.54692279821343
839,28.333324282190183
902,18.51260757446289
903,27.0
1051,3225.570738528494
1313,0.0
1078,2903013.664675645
2,1, 1, 1, 0, 2, 0.00,15.00,Tuesday
7,5.35
8,54.25
9,6.050000000000001
10,192.5
11,0.0
12,0.0
13,0.0
838,19.421889032528043
839,28.41014934950515
902,15.0
903,23.30100440979004
1051,117.94755741219025
1313,0.0
1078,106152.80167097122
2,1, 1, 1, 0, 2,15.00,30.00,Tuesday
7,5.1
8,55.5
9,5.9
10,195.0
11,0.0
12,0.0
13,0.0
838,19.30582177059585
839,28.420939981276298
902,15.0
903,25.621788024902344
1051,117.94755741219025
1313,0.0
1078,106152.80167097122
2,1, 1, 1, 0, 2,30.00,45.00,Tuesday
7,4.85
8,56.75
9,5.749999999999999
10,197.5
11,0.0
12,0.0
13,0.0
838,19.820602231213066
839,27.43079530119021
902,22.0
903,23.575389862060547
1051,9676.685801591275
1313,0.0
1078,8709017.221432146
2,1, 1, 1, 0, 2,45.00,60.00,Tuesday
7,4.6
8,58.0
9,5.6
10,200.0
11,0.0
12,0.0
13,0.0
838,20.17954985246039
839,26.740303690937676
902,22.0
903,23.25
1051,9676.685801591275
1313,0.0
1078,8709017.221432146
2,1, 1, 1, 0, 3, 0.00,15.00,Tuesday
7,4.375
8,59.5
9,5.199999999999999
10,187.5
11,0.0
12,0.0
13,0.0
838,20.420806650690643
839,26.27051449120252
902,21.739479064941406
903,27.0
1051,9676.685801591273
1313,0.0
1078,8709017.221432146
2,1, 1, 1, 0, 3,15.00,30.00,Tuesday
7,4.15
8,61.0
9,4.8
10,175.0
11,0.0
12,0.0
13,0.0
838,20.61078864801052
839,25.892537214356047
902,22.0
903,23.25
1051,9676.685801591273
1313,0.0
1078,8709017.221432146
2,1, 1, 1, 0, 3,30.00,45.00,Tuesday
7,3.9250000000000003
8,62.5
9,4.4
10,162.5
11,0.0
12,0.0
13,0.0
838,20.12768665027779
839,26.593865695334348
902,15.0
903,27.0
1051,196.79181269446318
1313,0.0
1078,177112.63142501685
2,1, 1, 1, 0, 3,45.00,60.00,Tuesday
7,3.7
8,64.0
9,4.0
10,150.0
11,0.0
12,0.0
13,0.0
838,19.811418435571483
839,27.042898614926827
902,15.0
903,23.25
1051,184.95372444241508
1313,0.0
1078,166458.35199817357
2,1, 1, 1, 0, 4, 0.00,15.00,Tuesday
7,3.325
8,65.5
9,3.75
10,147.5
11,0.0
12,0.0
13,0.0
838,19.615403173680384
839,27.296574393675847
902,15.0
903,23.25
1051,173.34884951379178
1313,0.0
1078,156013.96456241258
2,1, 1, 1, 0, 4,15.00,30.00,Tuesday
7,2.95
8,67.0
9,3.5
10,145.0
11,0.0
12,0.0
13,0.0
838,19.969705061271974
839,26.644311424446965
902,22.0
903,23.25
1051,9719.918693786187
1313,0.0
1078,8747926.824407566
2,1, 1, 1, 0, 4,30.00,45.00,Tuesday
7,2.575
8,68.5
9,3.25
10,142.5
11,0.0
12,0.0
13,0.0
838,20.325992932935442
839,25.9640311319381
902,22.0
903,23.25
1051,9722.442576237778
1313,0.0
1078,8750198.318613999
2,1, 1, 1, 0, 4,45.00,60.00,Tuesday
7,2.2
8,70.0
9,3.0
10,140.0
11,0.0
12,0.0
13,0.0
838,19.96161022471665
839,26.453956436086827
902,15.0
903,23.25
1051,166.1389100022149
1313,0.0
1078,149525.01900199344
2,1, 1, 1, 0, 5, 0.00,15.00,Tuesday
7,1.9500000000000002
8,71.0
9,2.975
10,157.5
11,0.0
12,0.0
13,0.0
838,19.613797210651647
839,26.934108921942713
902,15.0
903,23.25
1051,163.50133470199887
1313,0.0
1078,147151.201231799
2,1, 1, 1, 0, 5,15.00,30.00,Tuesday
7,1.7000000000000002
8,72.0
9,2.95
10,175.0
11,0.0
12,0.0
13,0.0
838,19.446101484807745
839,27.155776136461974
902,15.0
903,27.0
1051,204.0920958239256
1313,0.0
1078,183682.88624153304
2,1, 1, 1, 0, 5,30.00,45.00,Tuesday
7,1.45
8,73.0
9,2.925
10,192.5
11,0.0
12,0.0
13,0.0
838,19.814014211577266
839,26.510275962913063
902,22.0
903,23.25
1051,9798.63261288095
1313,0.0
1078,8818769.351592854
2,1, 1, 1, 0, 5,45.00,60.00,Tuesday
7,1.2
8,74.0
9,2.9
10,210.0
11,0.0
12,0.0
13,0.0
838,19.578049976764504
839,26.865562128177867
902,15.0
903,26.1604061126709
1051,289.0444451549827
1313,0.0
1078,260140.00063948447
2,1, 1, 1, 0, 6, 0.00,15.00,Tuesday
7,1.0999999999999999
8,75.0
9,2.775
10,210.0
11,0.0
12,0.0
13,0.0
838,19.368846000953706
839,27.18995625575388
902,15.0
903,27.0
1051,300.67054549126885
1313,0.0
1078,270603.490942142
2,1, 1, 1, 0, 6,15.00,30.00,Tuesday
7,1.0
8,76.0
9,2.65
10,210.0
11,0.0
12,0.0
13,0.0
838,19.201985947522815
839,27.449259716189534
902,15.0
903,27.0
1051,335.8898666528763
1313,0.0
1078,302300.87998758873
2,1, 1, 1, 0, 6,30.00,45.00,Tuesday
7,0.9000000000000001
8,77.0
9,2.525
10,210.0
11,0.0
12,0.0
13,0.0
838,19.07272254673625
839,27.637162380791167
902,15.0
903,27.0
1051,398.76376849136193
1313,0.0
1078,358887.3916422258
2,1, 1, 1, 0, 6,45.00,60.00,Tuesday
7,0.8
8,78.0
9,2.4
10,210.0
11,0.0
12,0.0
13,0.0
838,18.96763116321664
839,27.79872624691649
902,18.577011108398438
903,27.0
1051,5698.208594219985
1313,0.0
1078,5128387.734797987
2,1, 1, 1, 0, 7, 0.00,15.00,Tuesday
7,0.9750000000000001
8,76.75
9,2.5
10,197.5
11,0.0
12,0.0
13,0.0
838,19.36469173668774
839,27.02181922402787
902,22.0
903,23.25
1051,10824.414932992751
1313,0.0
1078,9741973.439693475
2,1, 1, 1, 0, 7,15.00,30.00,Tuesday
7,1.15
8,75.5
9,2.5999999999999996
10,185.0
11,0.0
12,0.0
13,0.0
838,19.74079496808828
839,26.30261491456705
902,22.0
903,23.25
1051,10778.73813197759
1313,0.0
1078,9700864.31877983
2,1, 1, 1, 0, 7,30.00,45.00,Tuesday
7,1.325
8,74.25
9,2.6999999999999997
10,172.5
11,0.0
12,0.0
13,0.0
838,20.015559532779683
839,25.759579978407565
902,21.740198135375977
903,23.25
1051,10728.410763351498
1313,0.0
1078,9655569.687016347
2,1, 1, 1, 0, 7,45.00,60.00,Tuesday
7,1.5
8,73.0
9,2.8
10,160.0
11,0.0
12,0.0
13,0.0
838,19.601964042583855
839,26.341864353797337
902,15.0
903,24.40938758850098
1051,1119.0739051467713
1313,0.0
1078,1007166.5146320942
2,1, 1, 1, 0, 8, 0.00,15.00,Tuesday
7,1.25
8,73.0
9,2.925
10,167.5
11,0.0
12,0.0
13,0.0
838,19.286590897322206
839,26.700144424366286
902,15.0
903,23.604427337646484
1051,1208.0184501123833
1313,0.0
1078,1087216.6051011449
2,1, 1, 1, 0, 8,15.00,30.00,Tuesday
7,1.0
8,73.0
9,3.05
10,175.0
11,1.0
12,133.0
13,0.0
838,19.63132075961892
839,26.032456581297236
902,22.0
903,23.74424362182617
1051,10849.802837960935
1313,0.0
1078,9764822.554164842
2,1, 1, 1, 0, 8,30.00,45.00,Tuesday
7,0.75
8,73.0
9,3.175
10,182.5
11,9.25
12,242.5
13,0.0
838,19.392857641462633
839,26.300118445208817
902,16.270280838012695
903,23.25
1051,1354.9439332516647
1313,0.0
1078,1219449.5399264982
2,1, 1, 1, 0, 8,45.00,60.00,Tuesday
7,0.5
8,73.0
9,3.3
10,190.0
11,17.5
12,352.0
13,0.0
838,19.17462066710129
839,26.537737502546143
902,15.0
903,23.25
1051,1425.1662133790585
1313,0.0
1078,1282649.5920411525
2,1, 1, 1, 0, 9, 0.00,15.00,Tuesday
7,1.8
8,67.75
9,3.3
10,217.5
11,25.75
12,461.5
13,20.0
838,20.206962835380693
839,25.99756837631183
902,15.0
903,27.0
1051,1055.4185499208272
1313,0.0
1078,949876.6949287445
2,1, 1, 1, 0, 9,15.00,30.00,Tuesday
7,3.1
8,62.5
9,3.3
10,245.0
11,34.0
12,571.0
13,20.0
838,21.606488377133648
839,25.09979107317272
902,22.000000000000014
903,23.250000000000018
1051,8440.997213662038
1313,0.0
1078,7596897.492295828
2,1, 1, 1, 0, 9,30.00,45.00,Tuesday
7,4.4
8,57.25
9,3.3
10,272.5
11,41.5
12,605.75
13,20.0
838,22.309302982546654
839,26.419948066793282
902,18.07530784606931
903,26.99999999999997
1051,725.1590552996605
1313,0.0
1078,652643.1497696952
2,1, 1, 1, 0, 9,45.00,60.00,Tuesday
7,5.7
8,52.0
9,3.3
10,300.0
11,49.0
12,640.5
13,20.0
838,22.56549766342917
839,27.45737599851708
902,22.0
903,23.25
1051,3137.128268168598
1313,0.0
1078,2823415.4413517383
2,1, 1, 1, 0,10, 0.00,15.00,Tuesday
7,6.0
8,50.75
9,3.6499999999999995
10,295.0
11,56.5
12,675.25
13,20.0
838,23.38920234931124
839,28.262844568408312
902,19.437253952026367
903,26.13992691040039
1051,580.0823093264378
1313,0.0
1078,522074.0783937939
2,1, 1, 1, 0,10,15.00,30.00,Tuesday
7,6.300000000000001
8,49.5
9,4.0
10,290.0
11,64.0
12,710.0
13,20.0
838,23.25190130892217
839,28.756636700111272
902,22.0
903,23.25
1051,131.56769954630158
1313,0.0
1078,118410.92959167143
2,1, 1, 1, 0,10,30.00,45.00,Tuesday
7,6.6000000000000005
8,48.25
9,4.3500000000000005
10,285.0
11,76.25
12,707.75
13,20.0
838,24.284514733058842
839,28.127638619761996
902,22.0
903,26.632686614990234
1051,240.26067256234134
1313,0.0
1078,216234.6053061072
2,1, 1, 1, 0,10,45.00,60.00,Tuesday
7,6.9
8,47.0
9,4.7
10,280.0
11,88.5
12,705.5
13,20.0
838,23.28984538572945
839,28.553559493021694
902,22.0
903,23.25
1051,217.42873117885446
1313,0.0
1078,195685.85806096904
2,1, 1, 1, 0,11, 0.00,15.00,Tuesday
7,7.65
8,46.25
9,5.1000000000000005
10,240.0
11,100.75
12,703.25
13,20.0
838,24.346219065337237
839,27.45837032250417
902,15.0
903,27.0
1051,117.94755741219024
1313,0.0
1078,106152.80167097121
2,1, 1, 1, 0,11,15.00,30.00,Tuesday
7,8.4
8,45.5
9,5.5
10,200.0
11,113.0
12,701.0
13,20.0
838,23.31451074742778
839,27.80995391908075
902,19.06606101989746
903,23.25
1051,413.91122925345275
1313,0.0
1078,372520.1063281074
2,1, 1, 1, 0,11,30.00,45.00,Tuesday
7,9.15
8,44.75
9,5.8999999999999995
10,160.0
11,112.25
12,748.75
13,20.0
838,24.341136049261728
839,26.91258130389455
902,15.0
903,25.760486602783203
1051,117.94755741219024
1313,0.0
1078,106152.80167097121
2,1, 1, 1, 0,11,45.00,60.00,Tuesday
7,9.9
8,44.0
9,6.3
10,120.0
11,111.5
12,796.5
13,20.0
838,25.382764230877534
839,26.60164597068173
902,18.19681167602539
903,27.0
1051,117.94755741219026
1313,0.0
1078,106152.80167097122
2,1, 1, 1, 0,12, 0.00,15.00,Tuesday
7,10.625
8,41.5
9,6.3999999999999995
10,120.0
11,110.75
12,844.25
13,16.0
838,23.522577756925518
839,27.08574225065603
902,22.0
903,23.25
1051,654.2471523918393
1313,0.0
1078,588822.4371526553
2,1, 1, 1, 0,12,15.00,30.00,Tuesday
7,11.350000000000001
8,39.0
9,6.5
10,120.0
11,110.0
12,892.0
13,16.0
838,24.652171857241385
839,25.822996453399508
902,15.0
903,27.0
1051,117.94755741219025
1313,0.0
1078,106152.80167097122
2,1, 1, 1, 0,12,30.00,45.00,Tuesday
7,12.075000000000001
8,36.5
9,6.6000000000000005
10,120.0
11,121.5
12,846.75
13,16.0
838,23.507440026168492
839,25.81525537560475
902,15.0
903,23.25
1051,897.486793836784
1313,0.0
1078,807738.1144531056
2,1, 1, 1, 0,12,45.00,60.00,Tuesday
7,12.8
8,34.0
9,6.7
10,120.0
11,133.0
12,801.5
13,16.0
838,23.255597452597073
839,24.85361862593093
902,20.79909896850586
903,23.25
1051,834.6605159728549
1313,0.0
1078,751194.4643755694
2,1, 1, 1, 0,13, 0.00,15.00,Tuesday
7,13.125000000000002
8,33.25
9,6.7
10,100.0
11,144.5
12,756.25
13,8.0
838,23.24946855312087
839,23.163364726970325
902,15.0
903,23.25
1051,782.8882662003346
1313,0.0
1078,704599.4395803012
2,1, 1, 1, 0,13,15.00,30.00,Tuesday
7,13.45
8,32.5
9,6.7
10,80.0
11,156.0
12,711.0
13,8.0
838,23.24951221946901
839,21.972207845294637
902,15.0
903,23.25
1051,866.889617071523
1313,0.0
1078,780200.6553643709
2,1, 1, 1, 0,13,30.00,45.00,Tuesday
7,13.774999999999999
8,31.75
9,6.7
10,60.0
11,135.0
12,776.25
13,8.0
838,23.249352184068528
839,21.367291993513017
902,22.0
903,23.25
1051,964.6579887336765
1313,0.0
1078,868192.1898603088
2,1, 1, 1, 0,13,45.00,60.00,Tuesday
7,14.1
8,31.0
9,6.7
10,40.0
11,114.0
12,841.5
13,8.0
838,23.24920742656053
839,20.86608437240813
902,22.0
903,23.25
1051,847.4193753834392
1313,0.0
1078,762677.4378450953
2,1, 1, 1, 0,14, 0.00,15.00,Tuesday
7,14.125
8,30.75
9,6.15
10,17.5
11,93.0
12,906.75
13,16.0
838,24.665073698602047
839,20.147080808283633
902,21.999999999999996
903,26.999999999999996
1051,117.94755741219024
1313,0.0
1078,106152.80167097122
2,1, 1, 1, 0,14,15.00,30.00,Tuesday
7,14.149999999999999
8,30.5
9,5.6
10,355.0
11,72.0
12,972.0
13,16.0
838,23.85410414003991
839,21.034050324428247
902,15.0
903,23.80469703674316
1051,1403.418830724791
1313,0.0
1078,1263076.947652312
2,1, 1, 1, 0,14,30.00,45.00,Tuesday
7,14.174999999999999
8,30.25
9,5.05
10,332.5
11,68.0
12,973.75
13,16.0
838,25.14223217147969
839,20.45881179166374
902,22.0
903,26.59889030456543
1051,126.23456972497785
1313,0.0
1078,113611.11275248005
2,1, 1, 1, 0,14,45.00,60.00,Tuesday
7,14.2
8,30.0
9,4.5
10,310.0
11,64.0
12,975.5
13,16.0
838,23.51707079522074
839,21.609229589126304
902,22.000000000000036
903,23.250000000000036
1051,1978.4059165239914
1313,0.0
1078,1780565.3248715892
2,1, 1, 1, 0,15, 0.00,15.00,Tuesday
7,14.399999999999999
8,29.75
9,4.375
10,305.0
11,60.0
12,977.25
13,20.0
838,23.256925784706503
839,21.798893038252942
902,15.0
903,23.25
1051,1638.9397715620548
1313,0.0
1078,1475045.7944058494
2,1, 1, 1, 0,15,15.00,30.00,Tuesday
7,14.6
8,29.5
9,4.25
10,300.0
11,56.0
12,979.0
13,20.0
838,24.059607929133236
839,21.459518206384658
902,15.0
903,24.072345733642578
1051,1122.5095785731714
1313,0.0
1078,1010258.6207158543
2,1, 1, 1, 0,15,30.00,45.00,Tuesday
7,14.8
8,29.25
9,4.125
10,295.0
11,57.0
12,967.5
13,20.0
838,24.915964269170022
839,21.388089991448737
902,22.0
903,25.00631332397461
1051,717.5581872680912
1313,0.0
1078,645802.3685412821
2,1, 1, 1, 0,15,45.00,60.00,Tuesday
7,15.0
8,29.0
9,4.0
10,290.0
11,58.0
12,956.0
13,20.0
838,23.438673957366927
839,22.86416223984502
902,22.0
903,23.25
1051,2047.3916272504277
1313,0.0
1078,1842652.4645253848
2,1, 1, 1, 0,16, 0.00,15.00,Tuesday
7,15.025
8,29.25
9,3.875
10,287.5
11,59.0
12,944.5
13,20.0
838,24.959455480666815
839,21.94786687615257
902,15.0
903,26.528499603271488
1051,292.45296400043304
1313,0.0
1078,263207.66760038974
2,1, 1, 1, 0,16,15.00,30.00,Tuesday
7,15.05
8,29.5
9,3.75
10,285.0
11,60.0
12,933.0
13,20.0
838,26.281547030708598
839,21.70974750896862
902,15.0
903,27.0
1051,283.4303882846175
1313,0.0
1078,255087.34945615573
2,1, 1, 1, 0,16,30.00,45.00,Tuesday
7,15.075
8,29.75
9,3.625
10,282.5
11,55.5
12,921.0
13,20.0
838,26.92826372106343
839,22.305203050546993
902,15.0
903,27.0
1051,561.1373143476624
1313,0.0
1078,505023.5829128961
2,1, 1, 1, 0,16,45.00,60.00,Tuesday
7,15.1
8,30.0
9,3.5
10,280.0
11,51.0
12,909.0
13,20.0
838,25.37019444669731
839,24.004858839495945
902,22.0
903,25.26921844482422
1051,1525.3847060967014
1313,0.0
1078,1372846.235487031
2,1, 1, 1, 0,17, 0.00,15.00,Tuesday
7,15.0
8,30.0
9,3.475
10,280.0
11,46.5
12,897.0
13,20.0
838,23.542228733483913
839,24.61984481714609
902,22.0
903,23.25
1051,2629.7512916481533
1313,0.0
1078,2366776.1624833383
2,1, 1, 1, 0,17,15.00,30.00,Tuesday
7,14.899999999999999
8,30.0
9,3.45
10,280.0
11,42.0
12,885.0
13,20.0
838,23.265159129427076
839,23.876842851048245
902,15.0
903,23.25
1051,1977.6370483661508
1313,0.0
1078,1779873.3435295357
2,1, 1, 1, 0,17,30.00,45.00,Tuesday
7,14.799999999999999
8,30.0
9,3.425
10,280.0
11,31.5
12,663.75
13,20.0
838,23.249771074445043
839,22.96682124902368
902,22.0
903,23.25
1051,1866.9468795210255
1313,0.0
1078,1680252.1915689232
2,1, 1, 1, 0,17,45.00,60.00,Tuesday
7,14.7
8,30.0
9,3.4
10,280.0
11,21.0
12,442.5
13,20.0
838,23.643158019117685
839,22.511491605182616
902,15.0
903,23.647472381591797
1051,1405.4652271679429
1313,0.0
1078,1264918.7044511489
2,1, 1, 1, 0,18, 0.00,15.00,Tuesday
7,14.174999999999999
8,31.25
9,3.15
10,280.0
11,10.5
12,221.25
13,20.0
838,24.493324967701227
839,22.07425532549869
902,22.0
903,24.591468811035156
1051,440.5401950051185
1313,0.0
1078,396486.1755046067
2,1, 1, 1, 0,18,15.00,30.00,Tuesday
7,13.649999999999999
8,32.5
9,2.9
10,280.0
11,0.0
12,0.0
13,20.0
838,23.34243615805304
839,23.27000440177527
902,15.0
903,23.25
1051,1137.9571315348549
1313,0.0
1078,1024161.4183813694
2,1, 1, 1, 0,18,30.00,45.00,Tuesday
7,13.125
8,33.75
9,2.65
10,280.0
11,0.0
12,0.0
13,20.0
838,23.261146355557294
839,22.745985595134705
902,22.0
903,23.25
1051,1105.5871190270946
1313,0.0
1078,995028.407124385
2,1, 1, 1, 0,18,45.00,60.00,Tuesday
7,12.6
8,35.0
9,2.4
10,280.0
11,0.0
12,0.0
13,20.0
838,24.10160393219062
839,22.20645368365615
902,20.425737380981445
903,24.154043197631836
1051,316.72430795041726
1313,0.0
1078,285051.8771553756
2,1, 1, 1, 0,19, 0.00,15.00,Tuesday
7,12.225
8,36.5
9,2.5
10,280.0
11,0.0
12,0.0
13,10.0
838,23.294882859054418
839,22.943090641301065
902,22.0
903,23.25
1051,569.3887839814538
1313,0.0
1078,512449.9055833083
2,1, 1, 1, 0,19,15.00,30.00,Tuesday
7,11.85
8,38.0
9,2.5999999999999996
10,280.0
11,0.0
12,0.0
13,10.0
838,23.24980666401615
839,22.907423492673693
902,22.0
903,23.25
1051,126.3076348371049
1313,0.0
1078,113676.87135339441
2,1, 1, 1, 0,19,30.00,45.00,Tuesday
7,11.475
8,39.5
9,2.6999999999999997
10,280.0
11,0.0
12,0.0
13,10.0
838,23.249699279194818
839,22.966638935026715
902,22.0
903,23.25
1051,227.514442441589
1313,0.0
1078,204762.9981974301
2,1, 1, 1, 0,19,45.00,60.00,Tuesday
7,11.1
8,41.0
9,2.8
10,280.0
11,0.0
12,0.0
13,10.0
838,23.249731658348797
839,23.184598269899308
902,22.0
903,23.25
1051,137.68205983880932
1313,0.0
1078,123913.85385492838
2,1, 1, 1, 0,20, 0.00,15.00,Tuesday
7,11.0
8,41.0
9,2.8
10,277.5
11,0.0
12,0.0
13,2.0
838,23.249910562605038
839,23.114904627865023
902,22.0
903,23.25
1051,117.94755741219025
1313,0.0
1078,106152.80167097122
2,1, 1, 1, 0,20,15.00,30.00,Tuesday
7,10.899999999999999
8,41.0
9,2.8
10,275.0
11,0.0
12,0.0
13,2.0
838,23.424187973866033
839,22.790968016755645
902,22.0
903,24.50204849243164
1051,117.94755741219025
1313,0.0
1078,106152.80167097122
2,1, 1, 1, 0,20,30.00,45.00,Tuesday
7,10.799999999999999
8,41.0
9,2.8
10,272.5
11,0.0
12,0.0
13,2.0
838,23.43829438747577
839,22.775602397210143
902,22.0
903,23.44381332397461
1051,117.94755741219025
1313,0.0
1078,106152.80167097122
2,1, 1, 1, 0,20,45.00,60.00,Tuesday
7,10.7
8,41.0
9,2.8
10,270.0
11,0.0
12,0.0
13,2.0
838,23.409203117331984
839,22.873248864948035
902,15.0
903,27.0
1051,117.94755741219025
1313,0.0
1078,106152.80167097122
2,1, 1, 1, 0,21, 0.00,15.00,Tuesday
7,10.474999999999998
8,42.0
9,2.3749999999999996
10,270.0
11,0.0
12,0.0
13,2.0
838,23.119171071494183
839,23.33440888041068
902,22.0
903,27.0
1051,1138.316003600439
1313,0.0
1078,1024484.403240395
2,1, 1, 1, 0,21,15.00,30.00,Tuesday
7,10.25
8,43.0
9,1.95
10,270.0
11,0.0
12,0.0
13,2.0
838,22.767772560018514
839,23.92212901316598
902,15.0
903,23.25
1051,117.94755741219025
1313,0.0
1078,106152.80167097122
2,1, 1, 1, 0,21,30.00,45.00,Tuesday
7,10.025
8,44.0
9,1.525
10,270.0
11,0.0
12,0.0
13,2.0
838,22.55297330224258
839,24.322053157574366
902,15.0
903,23.25
1051,117.94755741219025
1313,0.0
1078,106152.80167097122
2,1, 1, 1, 0,21,45.00,60.00,Tuesday
7,9.8
8,45.0
9,1.1
10,270.0
11,0.0
12,0.0
13,2.0
838,22.39625238850758
839,24.61281454108021
902,22.0
903,27.0
1051,3979.819315260236
1313,0.0
1078,3581837.3837342127
2,1, 1, 1, 0,22, 0.00,15.00,Tuesday
7,9.25
8,47.0
9,1.5
10,255.0
11,0.0
12,0.0
13,0.0
838,22.109080090254185
839,24.954000830751944
902,15.0
903,23.25
1051,117.94755741219025
1313,0.0
1078,106152.80167097122
2,1, 1, 1, 0,22,15.00,30.00,Tuesday
7,8.7
8,49.0
9,1.9000000000000001
10,240.0
11,0.0
12,0.0
13,0.0
838,21.84014432897273
839,25.253955380777388
902,20.298118591308594
903,23.25
1051,117.94755741219024
1313,0.0
1078,106152.80167097121
2,1, 1, 1, 0,22,30.00,45.00,Tuesday
7,8.149999999999999
8,51.0
9,2.3000000000000003
10,225.0
11,0.0
12,0.0
13,0.0
838,21.586495397312234
839,25.53188210637454
902,15.0
903,23.25
1051,117.94755741219025
1313,0.0
1078,106152.80167097122
2,1, 1, 1, 0,22,45.00,60.00,Tuesday
7,7.6
8,53.0
9,2.7
10,210.0
11,0.0
12,0.0
13,0.0
838,21.939691909606235
839,24.896030495296813
902,22.0
903,23.556196212768555
1051,8192.579915978882
1313,0.0
1078,7373321.924380994
2,1, 1, 1, 0,23, 0.00,15.00,Tuesday
7,7.249999999999999
8,54.25
9,2.6750000000000003
10,202.5
11,0.0
12,0.0
13,0.0
838,21.99948664497856
839,24.708389342836917
902,22.0
903,23.25
1051,5591.6916732991685
1313,0.0
1078,5032522.5059692515
2,1, 1, 1, 0,23,15.00,30.00,Tuesday
7,6.9
8,55.5
9,2.6500000000000004
10,195.0
11,0.0
12,0.0
13,0.0
838,22.00009817697809
839,24.588091983651967
902,22.0
903,27.0
1051,5739.5576772852155
1313,0.0
1078,5165601.909556694
2,1, 1, 1, 0,23,30.00,45.00,Tuesday
7,6.550000000000001
8,56.75
9,2.625
10,187.5
11,0.0
12,0.0
13,0.0
838,21.617646219723003
839,25.086178964010628
902,15.0
903,23.25
1051,117.94755741219025
1313,0.0
1078,106152.80167097122
2,1, 1, 1, 0,23,45.00,60.00,Tuesday
7,6.2
8,58.0
9,2.6
10,180.0
11,0.0
12,0.0
13,0.0
838,21.216783903491603
839,25.575104147352295
902,15.0
903,23.25
1051,117.94755741219025
1313,0.0
1078,106152.80167097122
2,1, 1, 1, 0,24, 0.00,15.00,Tuesday
7,5.65
8,60.75
9,2.725
10,167.5
11,0.0
12,0.0
13,0.0
838,20.958275934558166
839,25.892527071178886
902,15.0
903,27.0
1051,117.94755741219025
1313,0.0
1078,106152.80167097122
2,1, 1, 1, 0,24,15.00,30.00,Tuesday
7,5.1
8,63.5
9,2.85
10,155.0
11,0.0
12,0.0
13,0.0
838,20.7254256909066
839,26.158220806833945
902,15.0
903,25.324853897094727
1051,117.94755741219025
1313,0.0
1078,106152.80167097122
2,1, 1, 1, 0,24,30.00,45.00,Tuesday
7,4.55
8,66.25
9,2.975
10,142.5
11,0.0
12,0.0
13,0.0
838,20.545803480156003
839,26.34798552623122
902,15.0
903,23.25
1051,117.94755741219025
1313,0.0
1078,106152.80167097122
2,1, 1, 1, 0,24,45.00,60.00,Tuesday
7,4.0
8,69.0
9,3.1
10,130.0
11,0.0
12,0.0
13,0.0
838,20.39425331976855
839,26.506178725570688
902,16.203767776489258
903,27.0
1051,117.94755741219025
1313,0.0
1078,106152.80167097122
2,2, 1, 2, 0, 1, 0.00,15.00,Wednesday
7,3.75
8,70.25
9,2.85
10,127.5
11,0.0
12,0.0
13,0.0
838,20.218373645398025
839,26.647355410900193
902,19.30181312561035
903,25.37055397033691
1051,3350.551825775295
1313,0.0
1078,3015496.643197766
2,2, 1, 2, 0, 1,15.00,30.00,Wednesday
7,3.5
8,71.5
9,2.6
10,125.0
11,0.0
12,0.0
13,0.0
838,20.04509750823471
839,26.781307355841577
902,15.0
903,27.0
1051,297.1341619816583
1313,0.0
1078,267420.7457834924
2,2, 1, 2, 0, 1,30.00,45.00,Wednesday
7,3.25
8,72.75
9,2.35
10,122.5
11,0.0
12,0.0
13,0.0
838,19.887285279797897
839,26.83887451201248
902,15.0
903,25.296777725219727
1051,279.8165851520372
1313,0.0
1078,251834.92663683346
2,2, 1, 2, 0, 1,45.00,60.00,Wednesday
7,3.0
8,74.0
9,2.1
10,120.0
11,0.0
12,0.0
13,0.0
838,19.758150482047828
839,26.86746583887023
902,15.0
903,23.556903839111328
1051,265.6059188665976
1313,0.0
1078,239045.32697993785
2,2, 1, 2, 0, 2, 0.00,15.00,Wednesday
7,3.25
8,72.75
9,2.35
10,125.0
11,0.0
12,0.0
13,0.0
838,19.64309730426905
839,26.915472019023323
902,15.0
903,23.296096801757813
1051,249.9221607014053
1313,0.0
1078,224929.94463126475
2,2, 1, 2, 0, 2,15.00,30.00,Wednesday
7,3.5
8,71.5
9,2.6
10,130.0
11,0.0
12,0.0
13,0.0
838,20.128635316252527
839,26.054950909022278
902,22.0
903,23.25
1051,9782.706703403384
1313,0.0
1078,8804436.033063043
2,2, 1, 2, 0, 2,30.00,45.00,Wednesday
7,3.75
8,70.25
9,2.85
10,135.0
11,0.0
12,0.0
13,0.0
838,19.899867185423396
839,26.355413886554924
902,16.116397857666016
903,23.25
1051,221.27387611265613
1313,0.0
1078,199146.48850139056
2,2, 1, 2, 0, 2,45.00,60.00,Wednesday
7,4.0
8,69.0
9,3.1
10,140.0
11,0.0
12,0.0
13,0.0
838,20.270004827312384
839,25.743810394612915
902,22.0
903,26.574941635131836
1051,9676.685801591273
1313,0.0
1078,8709017.221432146
2,2, 1, 2, 0, 3, 0.00,15.00,Wednesday
7,4.0
8,67.75
9,2.45
10,137.5
11,0.0
12,0.0
13,0.0
838,19.99134392838976
839,26.17100997978867
902,16.132301330566406
903,26.670063018798828
1051,117.94755741219024
1313,0.0
1078,106152.80167097121
2,2, 1, 2, 0, 3,15.00,30.00,Wednesday
7,4.0
8,66.5
9,1.8
10,135.0
11,0.0
12,0.0
13,0.0
838,20.28528821189424
839,25.66703736654396
902,22.0
903,23.25
1051,9676.685801591273
1313,0.0
1078,8709017.221432146
2,2, 1, 2, 0, 3,30.00,45.00,Wednesday
7,4.0
8,65.25
9,1.15
10,132.5
11,0.0
12,0.0
13,0.0
838,20.108864190395174
839,25.913950985086938
902,15.0
903,23.25
1051,117.94755741219024
1313,0.0
1078,106152.80167097121
2,2, 1, 2, 0, 3,45.00,60.00,Wednesday
7,4.0
8,64.0
9,0.5
10,130.0
11,0.0
12,0.0
13,0.0
838,19.842976483098436
839,26.323445534311677
902,15.0
903,27.0
1051,117.94755741219025
1313,0.0
1078,106152.80167097122
2,2, 1, 2, 0, 4, 0.00,15.00,Wednesday
7,4.25
8,61.75
9,1.15
10,130.0
11,0.0
12,0.0
13,0.0
838,19.644867772948523
839,26.623588882037403
902,15.0
903,23.25
1051,117.94755741219025
1313,0.0
1078,106152.80167097122
2,2, 1, 2, 0, 4,15.00,30.00,Wednesday
7,4.5
8,59.5
9,1.8
10,130.0
11,0.0
12,0.0
13,0.0
838,20.002358737644748
839,26.014938190130017
902,22.0
903,23.25
1051,9676.685801591275
1313,0.0
1078,8709017.221432146
2,2, 1, 2, 0, 4,30.00,45.00,Wednesday
7,4.75
8,57.25
9,2.45
10,130.0
11,0.0
12,0.0
13,0.0
838,19.772846442769904
839,26.350161156382285
902,15.0
903,27.0
1051,117.94755741219025
1313,0.0
1078,106152.80167097122
2,2, 1, 2, 0, 4,45.00,60.00,Wednesday
7,5.0
8,55.0
9,3.1
10,130.0
11,0.0
12,0.0
13,0.0
838,20.14391458276244
839,25.709339968668072
902,22.0
903,27.0
1051,9676.685801591273
1313,0.0
1078,8709017.221432146
2,2, 1, 2, 0, 5, 0.00,15.00,Wednesday
7,4.75
8,56.0
9,2.575
10,127.5
11,0.0
12,0.0
13,0.0
838,19.91293584994387
839,26.014011561635087
902,15.0
903,26.726789474487305
1051,117.94755741219024
1313,0.0
1078,106152.80167097121
2,2, 1, 2, 0, 5,15.00,30.00,Wednesday
7,4.5
8,57.0
9,2.05
10,125.0
11,0.0
12,0.0
13,0.0
838,19.64415457745025
839,26.417797446780465
902,15.0
903,26.446197509765625
1051,117.94755741219025
1313,0.0
1078,106152.80167097122
2,2, 1, 2, 0, 5,30.00,45.00,Wednesday
7,4.25
8,58.0
9,1.525
10,122.5
11,0.0
12,0.0
13,0.0
838,19.455785961341903
839,26.70330796486142
902,15.0
903,23.25
1051,117.94755741219025
1313,0.0
1078,106152.80167097122
2,2, 1, 2, 0, 5,45.00,60.00,Wednesday
7,4.0
8,59.0
9,1.0
10,120.0
11,0.0
12,0.0
13,0.0
838,19.332750210383796
839,26.887141606573262
902,15.0
903,23.593021392822266
1051,117.94755741219025
1313,0.0
1078,106152.80167097122
2,2, 1, 2, 0, 6, 0.00,15.00,Wednesday
7,4.0
8,59.0
9,1.125
10,120.0
11,0.0
12,0.0
13,0.0
838,19.71454754866756
839,26.24659985141136
902,20.400951385498047
903,25.082712173461907
1051,9686.778017222607
1313,0.0
1078,8718100.215500345
2,2, 1, 2, 0, 6,15.00,30.00,Wednesday
7,4.0
8,59.0
9,1.25
10,120.0
11,0.0
12,0.0
13,0.0
838,19.481493448952342
839,26.616150311669504
902,15.0
903,23.25
1051,117.94755741219025
1313,0.0
1078,106152.80167097122
2,2, 1, 2, 0, 6,30.00,45.00,Wednesday
7,4.0
8,59.0
9,1.375
10,120.0
11,0.0
12,0.0
13,0.0
838,19.280687545608217
839,26.936337279629264
902,15.0
903,27.0
1051,144.39036243059252
1313,0.0
1078,129951.32618753327
2,2, 1, 2, 0, 6,45.00,60.00,Wednesday
7,4.0
8,59.0
9,1.5
10,120.0
11,0.0
12,0.0
13,0.0
838,19.61632643172003
839,26.365811393740877
902,22.0
903,27.0
1051,9737.555982244727
1313,0.0
1078,8763800.384020252
2,2, 1, 2, 0, 7, 0.00,15.00,Wednesday
7,4.5
8,57.0
9,1.65
10,117.5
11,0.0
12,0.0
13,0.0
838,19.409670469907354
839,26.62284293503255
902,15.0
903,24.897531509399414
1051,831.4178013903846
1313,0.0
1078,748276.0212513461
2,2, 1, 2, 0, 7,15.00,30.00,Wednesday
7,5.0
8,55.0
9,1.8
10,115.0
11,0.0
12,0.0
13,0.0
838,19.217650636935247
839,26.85005993792532
902,15.0
903,23.25
1051,814.8044390751829
1313,0.0
1078,733323.9951676647
2,2, 1, 2, 0, 7,30.00,45.00,Wednesday
7,5.5
8,53.0
9,1.9500000000000002
10,112.5
11,0.0
12,0.0
13,0.0
838,19.580073508852873
839,26.165310434431838
902,22.0
903,23.25
1051,10364.162605386724
1313,0.0
1078,9327746.34484805
2,2, 1, 2, 0, 7,45.00,60.00,Wednesday
7,6.0
8,51.0
9,2.1
10,110.0
11,0.0
12,0.0
13,0.0
838,19.373588675732154
839,26.40387604108902
902,15.0
903,23.25
1051,778.7227067573895
1313,0.0
1078,700850.4360816506
2,2, 1, 2, 0, 8, 0.00,15.00,Wednesday
7,6.0
8,51.0
9,2.35
10,115.0
11,0.0
12,0.0
13,0.0
838,19.17592110413659
839,26.630027332906174
902,15.0
903,23.783489227294922
1051,785.1570744878359
1313,0.0
1078,706641.3670390523
2,2, 1, 2, 0, 8,15.00,30.00,Wednesday
7,6.0
8,51.0
9,2.6
10,120.0
11,1.0
12,179.0
13,0.0
838,19.04091375816094
839,26.747085163566485
902,15.0
903,25.965044021606445
1051,797.1885553310308
1313,0.0
1078,717469.6997979276
2,2, 1, 2, 0, 8,30.00,45.00,Wednesday
7,6.0
8,51.0
9,2.85
10,125.0
11,7.25
12,309.5
13,0.0
838,19.441376982555582
839,25.99976063739069
902,21.999999999999986
903,23.24999999999997
1051,10366.069492928731
1313,0.0
1078,9329462.543635866
2,2, 1, 2, 0, 8,45.00,60.00,Wednesday
7,6.0
8,51.0
9,3.1
10,130.0
11,13.5
12,440.0
13,0.0
838,19.213291074434167
839,26.276311995484534
902,15.0
903,23.25
1051,794.5397810443783
1313,0.0
1078,715085.8029399405
2,2, 1, 2, 0, 9, 0.00,15.00,Wednesday
7,7.5
8,46.0
9,2.85
10,135.0
11,19.75
12,570.5
13,20.0
838,20.371272914875405
839,25.539779313280157
902,15.0
903,23.25
1051,883.6054170522013
1313,0.0