Program Version,EnergyPlus, Version 25.1.0-68a4a7c774, YMD=2026.04.16 16:09
1,5,Environment Title[],Latitude[deg],Longitude[deg],Time Zone[],Elevation[m]
2,8,Day of Simulation[],Month[],Day of Month[],DST Indicator[1=yes 0=no],Hour[],StartMinute[],EndMinute[],DayType
3,5,Cumulative Day of Simulation[],Month[],Day of Month[],DST Indicator[1=yes 0=no],DayType  ! When Daily Report Variables Requested
4,2,Cumulative Days of Simulation[],Month[]  ! When Monthly Report Variables Requested
5,1,Cumulative Days of Simulation[] ! When Run Period Report Variables Requested
6,1,Calendar Year of Simulation[] ! When Annual Report Variables Requested
7,1,Environment,Site Outdoor Air Drybulb Temperature [C] !TimeStep
8,1,Environment,Site Outdoor Air Relative Humidity [%] !TimeStep
9,1,Environment,Site Wind Speed [m/s] !TimeStep
10,1,Environment,Site Wind Direction [deg] !TimeStep
11,1,Environment,Site Diffuse Solar Radiation Rate per Area [W/m2] !TimeStep
12,1,Environment,Site Direct Solar Radiation Rate per Area [W/m2] !TimeStep
13,1,SPACE5-1,Zone People Occupant Count [] !TimeStep
838,1,SPACE5-1,Zone Air Temperature [C] !TimeStep
839,1,SPACE5-1,Zone Air Relative Humidity [%] !TimeStep
902,1,SPACE5-1,Zone Thermostat Heating Setpoint Temperature [C] !TimeStep
903,1,SPACE5-1,Zone Thermostat Cooling Setpoint Temperature [C] !TimeStep
1051,1,Whole Building,Facility Total HVAC Electricity Demand Rate [W] !TimeStep
1313,1,Site,Environmental Impact Total CO2 Emissions Carbon Equivalent Mass [kg] !TimeStep
1078,1,Electricity:HVAC [J] !TimeStep
End of Data Dictionary
1,RUNPERIOD 1,  32.17,-110.88,  -7.00, 809.00
2,1, 1, 1, 0, 1, 0.00,15.00,Tuesday
7,4.4
8,65.0
9,3.875
10,145.0
11,0.0
12,0.0
13,0.0
838,19.952078551521716
839,28.21567034315664
902,12.8
903,40.0
1051,117.94755741219025
1313,0.0
1078,106152.80167097122
2,1, 1, 1, 0, 1,15.00,30.00,Tuesday
7,4.8
8,61.0
9,4.65
10,160.0
11,0.0
12,0.0
13,0.0
838,19.810963307962222
839,28.269684017603552
902,17.999557495117188
903,27.0
1051,480.02103577451277
1313,0.0
1078,432018.9321970615
2,1, 1, 1, 0, 1,30.00,45.00,Tuesday
7,5.199999999999999
8,57.0
9,5.425000000000001
10,175.0
11,0.0
12,0.0
13,0.0
838,19.672855344082375
839,28.293536887107134
902,15.0
903,25.676822662353516
1051,117.94755741219025
1313,0.0
1078,106152.80167097122
2,1, 1, 1, 0, 1,45.00,60.00,Tuesday
7,5.6
8,53.0
9,6.2
10,190.0
11,0.0
12,0.0
13,0.0
838,19.540234974300258
839,28.281376607304605
902,15.0
903,24.094409942626953
1051,117.94755741219025
1313,0.0
1078,106152.80167097122
2,1, 1, 1, 0, 2, 0.00,15.00,Tuesday
7,5.35
8,54.25
9,6.050000000000001
10,192.5
11,0.0
12,0.0
13,0.0
838,19.420715820755817
839,28.283940473509283
902,15.0
903,27.0
1051,117.94755741219025
1313,0.0
1078,106152.80167097122
2,1, 1, 1, 0, 2,15.00,30.00,Tuesday
7,5.1
8,55.5
9,5.9
10,195.0
11,0.0
12,0.0
13,0.0
838,19.31239898108328
839,28.29121799637026
902,15.99094009399414
903,26.06256866455078
1051,117.94755741219025
1313,0.0
1078,106152.80167097122
2,1, 1, 1, 0, 2,30.00,45.00,Tuesday
7,4.85
8,56.75
9,5.749999999999999
10,197.5
11,0.0
12,0.0
13,0.0
838,19.211724105181677
839,28.310585675940413
902,15.0
903,24.91963005065918
1051,117.94755741219025
1313,0.0
1078,106152.80167097122
2,1, 1, 1, 0, 2,45.00,60.00,Tuesday
7,4.6
8,58.0
9,5.6
10,200.0
11,0.0
12,0.0
13,0.0
838,19.12614888824888
839,28.323847719176282
902,15.354677200317383
903,23.993879318237305
1051,117.94755741219025
1313,0.0
1078,106152.80167097122
2,1, 1, 1, 0, 3, 0.00,15.00,Tuesday
7,4.375
8,59.5
9,5.199999999999999
10,187.5
11,0.0
12,0.0
13,0.0
838,19.645677370333345
839,27.364585372669204
902,20.313545227050778
903,27.0
1051,9676.685801591275
1313,0.0
1078,8709017.221432146
2,1, 1, 1, 0, 3,15.00,30.00,Tuesday
7,4.15
8,61.0
9,4.8
10,175.0
11,0.0
12,0.0
13,0.0
838,19.44184444669636
839,27.65094567129715
902,16.44168472290039
903,26.876441955566406
1051,117.94755741219025
1313,0.0
1078,106152.80167097122
2,1, 1, 1, 0, 3,30.00,45.00,Tuesday
7,3.9250000000000003
8,62.5
9,4.4
10,162.5
11,0.0
12,0.0
13,0.0
838,19.204974673319725
839,28.00073188083402
902,15.0
903,27.0
1051,156.73796895720335
1313,0.0
1078,141064.17206148303
2,1, 1, 1, 0, 3,45.00,60.00,Tuesday
7,3.7
8,64.0
9,4.0
10,150.0
11,0.0
12,0.0
13,0.0
838,19.045882560625472
839,28.22461772322578
902,16.781097412109375
903,27.0
1051,146.48788571261906
1313,0.0
1078,131839.09714135714
2,1, 1, 1, 0, 4, 0.00,15.00,Tuesday
7,3.325
8,65.5
9,3.75
10,147.5
11,0.0
12,0.0
13,0.0
838,18.941813790311233
839,28.34193297940339
902,15.0
903,25.120485305786133
1051,136.2756615894863
1313,0.0
1078,122648.09543053768
2,1, 1, 1, 0, 4,15.00,30.00,Tuesday
7,2.95
8,67.0
9,3.5
10,145.0
11,0.0
12,0.0
13,0.0
838,18.86936607477668
839,28.41701235239383
902,16.540645599365234
903,24.39124298095703
1051,117.94755741219025
1313,0.0
1078,106152.80167097122
2,1, 1, 1, 0, 4,30.00,45.00,Tuesday
7,2.575
8,68.5
9,3.25
10,142.5
11,0.0
12,0.0
13,0.0
838,19.282189789149758
839,27.666704842240712
902,19.56188201904297
903,27.0
1051,9687.37162217232
1313,0.0
1078,8718634.459955087
2,1, 1, 1, 0, 4,45.00,60.00,Tuesday
7,2.2
8,70.0
9,3.0
10,140.0
11,0.0
12,0.0
13,0.0
838,19.080090363705203
839,27.986019380826612
902,16.71588897705078
903,26.656095504760742
1051,148.25833205435197
1313,0.0
1078,133432.49884891676
2,1, 1, 1, 0, 5, 0.00,15.00,Tuesday
7,1.9500000000000002
8,71.0
9,2.975
10,157.5
11,0.0
12,0.0
13,0.0
838,19.501622039923436
839,27.234605869864566
902,20.668384552001953
903,27.0
1051,9738.1633482988
1313,0.0
1078,8764347.01346892
2,1, 1, 1, 0, 5,15.00,30.00,Tuesday
7,1.7000000000000002
8,72.0
9,2.95
10,175.0
11,0.0
12,0.0
13,0.0
838,19.229017972876946
839,27.6706744393685
902,16.87104034423828
903,27.0
1051,231.52128062310217
1313,0.0
1078,208369.15256079196
2,1, 1, 1, 0, 5,30.00,45.00,Tuesday
7,1.45
8,73.0
9,2.925
10,192.5
11,0.0
12,0.0
13,0.0
838,19.54749126724674
839,27.082498512398296
902,19.77941131591797
903,25.565488815307617
1051,8973.69078211868
1313,0.0
1078,8076321.703906813
2,1, 1, 1, 0, 5,45.00,60.00,Tuesday
7,1.2
8,74.0
9,2.9
10,210.0
11,0.0
12,0.0
13,0.0
838,19.356468032284575
839,27.35973793240123
902,16.115524291992188
903,23.25
1051,361.60892902110277
1313,0.0
1078,325448.0361189925
2,1, 1, 1, 0, 6, 0.00,15.00,Tuesday
7,1.0999999999999999
8,75.0
9,2.775
10,210.0
11,0.0
12,0.0
13,0.0
838,19.693977184730546
839,26.764621492543412
902,21.598461151123047
903,27.0
1051,9966.022659201
1313,0.0
1078,8969420.3932809
2,1, 1, 1, 0, 6,15.00,30.00,Tuesday
7,1.0
8,76.0
9,2.65
10,210.0
11,0.0
12,0.0
13,0.0
838,19.84209029514693
839,26.489440415488463
902,19.841794967651367
903,23.630685806274414
1051,5532.2575460841
1313,0.0
1078,4979031.79147569
2,1, 1, 1, 0, 6,30.00,45.00,Tuesday
7,0.9000000000000001
8,77.0
9,2.525
10,210.0
11,0.0
12,0.0
13,0.0
838,19.438341563145528
839,27.1418879470496
902,17.876203536987305
903,26.12119483947754
1051,443.3019533694654
1313,0.0
1078,398971.7580325188
2,1, 1, 1, 0, 6,45.00,60.00,Tuesday
7,0.8
8,78.0
9,2.4
10,210.0
11,0.0
12,0.0
13,0.0
838,19.14185292887131
839,27.61164838177571
902,15.0
903,27.0
1051,501.17401713924994
1313,0.0
1078,451056.6154253249
2,1, 1, 1, 0, 7, 0.00,15.00,Tuesday
7,0.9750000000000001
8,76.75
9,2.5
10,197.5
11,0.0
12,0.0
13,0.0
838,19.00724492354898
839,27.750585131272803
902,16.04743194580078
903,27.0
1051,1294.4230125636284
1313,0.0
1078,1164980.7113072656
2,1, 1, 1, 0, 7,15.00,30.00,Tuesday
7,1.15
8,75.5
9,2.5999999999999996
10,185.0
11,0.0
12,0.0
13,0.0
838,18.907718272027935
839,27.782598335032745
902,15.0
903,26.3603572845459
1051,1268.4218405927982
1313,0.0
1078,1141579.6565335183
2,1, 1, 1, 0, 7,30.00,45.00,Tuesday
7,1.325
8,74.25
9,2.6999999999999997
10,172.5
11,0.0
12,0.0
13,0.0
838,18.811335855028716
839,27.79527612840407
902,15.158929824829102
903,27.0
1051,1243.2983325383773
1313,0.0
1078,1118968.4992845396
2,1, 1, 1, 0, 7,45.00,60.00,Tuesday
7,1.5
8,73.0
9,2.8
10,160.0
11,0.0
12,0.0
13,0.0
838,19.207588172621385
839,27.027285551961413
902,20.357582092285153
903,27.0
1051,10788.423955612476
1313,0.0
1078,9709581.560051227
2,1, 1, 1, 0, 8, 0.00,15.00,Tuesday
7,1.25
8,73.0
9,2.925
10,167.5
11,0.0
12,0.0
13,0.0
838,19.33439858531402
839,26.71508890949565
902,19.334970474243164
903,26.058795928955075
1051,8455.577594307455
1313,0.0
1078,7610019.834876709
2,1, 1, 1, 0, 8,15.00,30.00,Tuesday
7,1.0
8,73.0
9,3.05
10,175.0
11,1.0
12,133.0
13,0.0
838,19.587587098904326
839,26.130647573425975
902,20.125011444091797
903,25.904239654541016
1051,10292.318657580208
1313,0.0
1078,9263086.791822186
2,1, 1, 1, 0, 8,30.00,45.00,Tuesday
7,0.75
8,73.0
9,3.175
10,182.5
11,9.25
12,242.5
13,0.0
838,19.22129036982615
839,26.615438709073384
902,15.0
903,27.0
1051,1404.3985955847036
1313,0.0
1078,1263958.736026233
2,1, 1, 1, 0, 8,45.00,60.00,Tuesday
7,0.5
8,73.0
9,3.3
10,190.0
11,17.5
12,352.0
13,0.0
838,18.944091807291045
839,26.88024120951573
902,15.0
903,26.441181182861328
1051,1481.9865122437573
1313,0.0
1078,1333787.8610193813
2,1, 1, 1, 0, 9, 0.00,15.00,Tuesday
7,1.8
8,67.75
9,3.3
10,217.5
11,25.75
12,461.5
13,20.0
838,20.00335453056253
839,26.25313814239525
902,18.743024826049805
903,23.895723342895508
1051,2197.257813843426
1313,0.0
1078,1977532.0324590835
2,1, 1, 1, 0, 9,15.00,30.00,Tuesday
7,3.1
8,62.5
9,3.3
10,245.0
11,34.0
12,571.0
13,20.0
838,21.073702682469257
839,26.715340924895443
902,16.199609756469727
903,27.0
1051,939.8705907274441
1313,0.0
1078,845883.5316546997
2,1, 1, 1, 0, 9,30.00,45.00,Tuesday
7,4.4
8,57.25
9,3.3
10,272.5
11,41.5
12,605.75
13,20.0
838,21.775922639238903
839,27.045733653167144
902,15.0
903,26.360631942749023
1051,1079.2441981796655
1313,0.0
1078,971319.778361699
2,1, 1, 1, 0, 9,45.00,60.00,Tuesday
7,5.7
8,52.0
9,3.3
10,300.0
11,49.0
12,640.5
13,20.0
838,22.36782565489019
839,27.627327350131573
902,15.0
903,27.0
1051,1026.3970901818686
1313,0.0
1078,923757.3811636817
2,1, 1, 1, 0,10, 0.00,15.00,Tuesday
7,6.0
8,50.75
9,3.6499999999999995
10,295.0
11,56.5
12,675.25
13,20.0
838,23.21436186001164
839,27.644505341072254
902,16.815622329711914
903,26.80586814880371
1051,984.9764921901951
1313,0.0
1078,886478.8429711756
2,1, 1, 1, 0,10,15.00,30.00,Tuesday
7,6.300000000000001
8,49.5
9,4.0
10,290.0
11,64.0
12,710.0
13,20.0
838,24.021718501466005
839,28.59292824681019
902,15.971002578735352
903,27.0
1051,519.6254546905628
1313,0.0
1078,467662.90922150656
2,1, 1, 1, 0,10,30.00,45.00,Tuesday
7,6.6000000000000005
8,48.25
9,4.3500000000000005
10,285.0
11,76.25
12,707.75
13,20.0
838,24.541384550702553
839,29.931935946944034
902,15.0
903,27.0
1051,117.94755741219024
1313,0.0
1078,106152.80167097121
2,1, 1, 1, 0,10,45.00,60.00,Tuesday
7,6.9
8,47.0
9,4.7
10,280.0
11,88.5
12,705.5
13,20.0
838,24.95950249920589
839,30.760383840076734
902,19.43045425415039
903,27.0
1051,117.94755741219025
1313,0.0
1078,106152.80167097122
2,1, 1, 1, 0,11, 0.00,15.00,Tuesday
7,7.65
8,46.25
9,5.1000000000000005
10,240.0
11,100.75
12,703.25
13,20.0
838,24.893131530803515
839,31.29081882591032
902,22.0
903,24.893299102783203
1051,117.94755741219024
1313,0.0
1078,106152.80167097121
2,1, 1, 1, 0,11,15.00,30.00,Tuesday
7,8.4
8,45.5
9,5.5
10,200.0
11,113.0
12,701.0
13,20.0
838,25.421969951397895
839,31.536604216204992
902,21.496803283691406
903,27.0
1051,117.94755741219024
1313,0.0
1078,106152.80167097121
2,1, 1, 1, 0,11,30.00,45.00,Tuesday
7,9.15
8,44.75
9,5.8999999999999995
10,160.0
11,112.25
12,748.75
13,20.0
838,23.507740144164796
839,31.397021951683687
902,19.571434020996094
903,23.25
1051,523.7919361761411
1313,0.0
1078,471412.74255852704
2,1, 1, 1, 0,11,45.00,60.00,Tuesday
7,9.9
8,44.0
9,6.3
10,120.0
11,111.5
12,796.5
13,20.0
838,24.631067618565012
839,29.86085908863734
902,18.266103744506836
903,27.0
1051,117.94755741219025
1313,0.0
1078,106152.80167097122
2,1, 1, 1, 0,12, 0.00,15.00,Tuesday
7,10.625
8,41.5
9,6.3999999999999995
10,120.0
11,110.75
12,844.25
13,16.0
838,25.19575671314943
839,29.130670021148067
902,20.719921112060547
903,25.22842407226562
1051,118.73334693085039
1313,0.0
1078,106860.01223776536
2,1, 1, 1, 0,12,15.00,30.00,Tuesday
7,11.350000000000001
8,39.0
9,6.5
10,120.0
11,110.0
12,892.0
13,16.0
838,25.572811407310958
839,28.777931422666448
902,15.0
903,25.578157424926758
1051,117.94755741219025
1313,0.0
1078,106152.80167097122
2,1, 1, 1, 0,12,30.00,45.00,Tuesday
7,12.075000000000001
8,36.5
9,6.6000000000000005
10,120.0
11,121.5
12,846.75
13,16.0
838,26.172549643581014
839,28.49896573717693
902,17.69976806640625
903,27.0
1051,117.94755741219024
1313,0.0
1078,106152.80167097121
2,1, 1, 1, 0,12,45.00,60.00,Tuesday
7,12.8
8,34.0
9,6.7
10,120.0
11,133.0
12,801.5
13,16.0
838,25.155537891899947
839,27.980112803726087
902,15.0
903,25.13325309753418
1051,555.3753043917015
1313,0.0
1078,499837.7739525314
2,1, 1, 1, 0,13, 0.00,15.00,Tuesday
7,13.125000000000002
8,33.25
9,6.7
10,100.0
11,144.5
12,756.25
13,8.0
838,24.921011837815954
839,26.71784294289197
902,16.921546936035156
903,24.91879272460937
1051,372.36411571923963
1313,0.0
1078,335127.7041473157
2,1, 1, 1, 0,13,15.00,30.00,Tuesday
7,13.45
8,32.5
9,6.7
10,80.0
11,156.0
12,711.0
13,8.0
838,25.885782982734575
839,25.25404595090138
902,15.0
903,27.0
1051,117.94755741219024
1313,0.0
1078,106152.80167097122
2,1, 1, 1, 0,13,30.00,45.00,Tuesday
7,13.774999999999999
8,31.75
9,6.7
10,60.0
11,135.0
12,776.25
13,8.0
838,24.764303053495574
839,24.363480335756844
902,19.807540893554688
903,24.620462417602532
1051,1000.7814112993567
1313,0.0
1078,900703.2701694213
2,1, 1, 1, 0,13,45.00,60.00,Tuesday
7,14.1
8,31.0
9,6.7
10,40.0
11,114.0
12,841.5
13,8.0
838,25.58570549585724
839,23.268102985313995
902,16.256727218627955
903,26.864936828613317
1051,117.94755741219043
1313,0.0
1078,106152.80167097121
2,1, 1, 1, 0,14, 0.00,15.00,Tuesday
7,14.125
8,30.75
9,6.15
10,17.5
11,93.0
12,906.75
13,16.0
838,26.598953603924844
839,22.862690018982104
902,18.980945587158203
903,27.0
1051,135.16442533859066
1313,0.0
1078,121647.98280473158
2,1, 1, 1, 0,14,15.00,30.00,Tuesday
7,14.149999999999999
8,30.5
9,5.6
10,355.0
11,72.0
12,972.0
13,16.0
838,26.991272554521615
839,22.987997992569767
902,18.457164764404297
903,27.0
1051,224.3882340838154
1313,0.0
1078,201949.41067543387
2,1, 1, 1, 0,14,30.00,45.00,Tuesday
7,14.174999999999999
8,30.25
9,5.05
10,332.5
11,68.0
12,973.75
13,16.0
838,26.998897827045905
839,23.289610885184125
902,15.0
903,27.0
1051,279.66487868399656
1313,0.0
1078,251698.3908155969
2,1, 1, 1, 0,14,45.00,60.00,Tuesday
7,14.2
8,30.0
9,4.5
10,310.0
11,64.0
12,975.5
13,16.0
838,26.998798642699303
839,23.251034752783802
902,17.325429916381836
903,27.0
1051,340.32390537542744
1313,0.0
1078,306291.5148378847
2,1, 1, 1, 0,15, 0.00,15.00,Tuesday
7,14.399999999999999
8,29.75
9,4.375
10,305.0
11,60.0
12,977.25
13,20.0
838,26.01560502701333
839,23.95289579443932
902,17.388200759887695
903,25.983310699462887
1051,825.8550238199629
1313,0.0
1078,743269.5214379665
2,1, 1, 1, 0,15,15.00,30.00,Tuesday
7,14.6
8,29.5
9,4.25
10,300.0
11,56.0
12,979.0
13,20.0
838,26.80407197884045
839,23.701424906466844
902,18.239959716796875
903,27.0
1051,223.5492757661213
1313,0.0
1078,201194.34818950918
2,1, 1, 1, 0,15,30.00,45.00,Tuesday
7,14.8
8,29.25
9,4.125
10,295.0
11,57.0
12,967.5
13,20.0
838,26.473533398187147
839,24.06640745202447
902,20.82933807373047
903,26.459575653076172
1051,717.9650561686128
1313,0.0
1078,646168.5505517515
2,1, 1, 1, 0,15,45.00,60.00,Tuesday
7,15.0
8,29.0
9,4.0
10,290.0
11,58.0
12,956.0
13,20.0
838,26.183904997688654
839,24.184836175613228
902,18.294719696044922
903,26.15436363220215
1051,950.9929399913684
1313,0.0
1078,855893.6459922316
2,1, 1, 1, 0,16, 0.00,15.00,Tuesday
7,15.025
8,29.25
9,3.875
10,287.5
11,59.0
12,944.5
13,20.0
838,26.872390702585726
839,24.06233123539784
902,15.0
903,27.0
1051,397.07330094840006
1313,0.0
1078,357365.97085356
2,1, 1, 1, 0,16,15.00,30.00,Tuesday
7,15.05
8,29.5
9,3.75
10,285.0
11,60.0
12,933.0
13,20.0
838,25.320758374400473
839,25.021380314737936
902,20.729633331298828
903,25.19834899902344
1051,1694.1630848856298
1313,0.0
1078,1524746.7763970667
2,1, 1, 1, 0,16,30.00,45.00,Tuesday
7,15.075
8,29.75
9,3.625
10,282.5
11,55.5
12,921.0
13,20.0
838,26.5160905855187
839,23.98468958461709
902,22.0
903,27.0
1051,599.3038539481951
1313,0.0
1078,539373.4685533756
2,1, 1, 1, 0,16,45.00,60.00,Tuesday
7,15.1
8,30.0
9,3.5
10,280.0
11,51.0
12,909.0
13,20.0
838,26.994858109340512
839,24.127728792407172
902,19.132003784179688
903,27.0
1051,931.8059750856066
1313,0.0
1078,838625.3775770462
2,1, 1, 1, 0,17, 0.00,15.00,Tuesday
7,15.0
8,30.0
9,3.475
10,280.0
11,46.5
12,897.0
13,20.0
838,24.136350697918246
839,25.857654661169192
902,17.65745162963867
903,23.571472167968746
1051,2485.583756731167
1313,0.0
1078,2237025.381058051
2,1, 1, 1, 0,17,15.00,30.00,Tuesday
7,14.899999999999999
8,30.0
9,3.45
10,280.0
11,42.0
12,885.0
13,20.0
838,25.588647342568994
839,24.499605801476264
902,17.979206085205078
903,27.0
1051,769.4693114245173
1313,0.0
1078,692522.3802820656
2,1, 1, 1, 0,17,30.00,45.00,Tuesday
7,14.799999999999999
8,30.0
9,3.425
10,280.0
11,31.5
12,663.75
13,20.0
838,26.080858978022242
839,24.399270802216588
902,15.000000000000004
903,26.08408737182618
1051,998.0220226210323
1313,0.0
1078,898219.8203589289
2,1, 1, 1, 0,17,45.00,60.00,Tuesday
7,14.7
8,30.0
9,3.4
10,280.0
11,21.0
12,442.5
13,20.0
838,24.592075230491428
839,24.74291752548091
902,18.761999130249023
903,24.43547058105469
1051,1835.3420669163515
1313,0.0
1078,1651807.8602247164
2,1, 1, 1, 0,18, 0.00,15.00,Tuesday
7,14.174999999999999
8,31.25
9,3.15
10,280.0
11,10.5
12,221.25
13,20.0
838,26.025675879124297
839,23.705496988063175
902,15.0
903,27.0
1051,134.63937365894262
1313,0.0
1078,121175.43629304835
2,1, 1, 1, 0,18,15.00,30.00,Tuesday
7,13.649999999999999
8,32.5
9,2.9
10,280.0
11,0.0
12,0.0
13,20.0
838,26.50861310620752
839,23.635230910668803
902,18.255870819091797
903,26.51167106628418
1051,161.64771904928804
1313,0.0
1078,145482.94714435923
2,1, 1, 1, 0,18,30.00,45.00,Tuesday
7,13.125
8,33.75
9,2.65
10,280.0
11,0.0
12,0.0
13,20.0
838,26.989710187548994
839,23.88855954404299
902,15.700267791748047
903,27.0
1051,117.94755741219025
1313,0.0
1078,106152.80167097122
2,1, 1, 1, 0,18,45.00,60.00,Tuesday
7,12.6
8,35.0
9,2.4
10,280.0
11,0.0
12,0.0
13,20.0
838,24.984775816166962
839,25.131491411678404
902,16.537919998168945
903,24.773195266723626
1051,806.4346496415907
1313,0.0
1078,725791.1846774317
2,1, 1, 1, 0,19, 0.00,15.00,Tuesday
7,12.225
8,36.5
9,2.5
10,280.0
11,0.0
12,0.0
13,10.0
838,24.416922740810122
839,24.597508155931344
902,20.13733673095703
903,24.380216598510742
1051,364.28728809061045
1313,0.0
1078,327858.55928154936
2,1, 1, 1, 0,19,15.00,30.00,Tuesday
7,11.85
8,38.0
9,2.5999999999999996
10,280.0
11,0.0
12,0.0
13,10.0
838,25.07534208586838
839,23.953783132552875
902,15.0
903,27.0
1051,117.94755741219024
1313,0.0
1078,106152.80167097121
2,1, 1, 1, 0,19,30.00,45.00,Tuesday
7,11.475
8,39.5
9,2.6999999999999997
10,280.0
11,0.0
12,0.0
13,10.0
838,25.77922150820862
839,24.036097036290787
902,21.761037826538086
903,25.988285064697266
1051,117.94755741219024
1313,0.0
1078,106152.80167097121
2,1, 1, 1, 0,19,45.00,60.00,Tuesday
7,11.1
8,41.0
9,2.8
10,280.0
11,0.0
12,0.0
13,10.0
838,24.23241725723763
839,25.343056629438916
902,16.435598373413086
903,24.165643692016605
1051,238.53846415947532
1313,0.0
1078,214684.61774352775
2,1, 1, 1, 0,20, 0.00,15.00,Tuesday
7,11.0
8,41.0
9,2.8
10,277.5
11,0.0
12,0.0
13,2.0
838,24.246372020692924
839,24.97184072460795
902,15.443948745727539
903,27.0
1051,117.94755741219025
1313,0.0
1078,106152.80167097122
2,1, 1, 1, 0,20,15.00,30.00,Tuesday
7,10.899999999999999
8,41.0
9,2.8
10,275.0
11,0.0
12,0.0
13,2.0
838,23.833389216421622
839,24.755181376015315
902,15.0
903,23.806079864501953
1051,119.33356053034174
1313,0.0
1078,107400.20447730756
2,1, 1, 1, 0,20,30.00,45.00,Tuesday
7,10.799999999999999
8,41.0
9,2.8
10,272.5
11,0.0
12,0.0
13,2.0
838,24.065258157260857
839,24.054121589388703
902,18.53928565979004
903,24.650863647460938
1051,117.94755741219025
1313,0.0
1078,106152.80167097122
2,1, 1, 1, 0,20,45.00,60.00,Tuesday
7,10.7
8,41.0
9,2.8
10,270.0
11,0.0
12,0.0
13,2.0
838,24.17822172054872
839,23.84975745567464
902,20.338176727294922
903,27.0
1051,117.94755741219025
1313,0.0
1078,106152.80167097122
2,1, 1, 1, 0,21, 0.00,15.00,Tuesday
7,10.474999999999998
8,42.0
9,2.3749999999999996
10,270.0
11,0.0
12,0.0
13,2.0
838,23.828158046443708
839,24.320854121252417
902,18.514196395874023
903,27.0
1051,117.94755741219025
1313,0.0
1078,106152.80167097122
2,1, 1, 1, 0,21,15.00,30.00,Tuesday
7,10.25
8,43.0
9,1.95
10,270.0
11,0.0
12,0.0
13,2.0
838,23.427998475163207
839,24.881214656108085
902,19.288225173950195
903,27.0
1051,117.94755741219025
1313,0.0
1078,106152.80167097122
2,1, 1, 1, 0,21,30.00,45.00,Tuesday
7,10.025
8,44.0
9,1.525
10,270.0
11,0.0
12,0.0
13,2.0
838,23.167571450075407
839,25.250466180892076
902,21.111854553222656
903,26.0729923248291
1051,117.94755741219025
1313,0.0
1078,106152.80167097122
2,1, 1, 1, 0,21,45.00,60.00,Tuesday
7,9.8
8,45.0
9,1.1
10,270.0
11,0.0
12,0.0
13,2.0
838,22.942750647853188
839,25.581182555960538
902,20.025012969970703
903,27.0
1051,117.94755741219025
1313,0.0
1078,106152.80167097122
2,1, 1, 1, 0,22, 0.00,15.00,Tuesday
7,9.25
8,47.0
9,1.5
10,255.0
11,0.0
12,0.0
13,0.0
838,22.603954380138507
839,25.944863569909153
902,15.892403602600098
903,26.518667221069336
1051,117.94755741219025
1313,0.0
1078,106152.80167097122
2,1, 1, 1, 0,22,15.00,30.00,Tuesday
7,8.7
8,49.0
9,1.9000000000000001
10,240.0
11,0.0
12,0.0
13,0.0
838,22.238646393245496
839,26.224238776593133
902,16.836688995361328
903,23.25
1051,117.94755741219025
1313,0.0
1078,106152.80167097122
2,1, 1, 1, 0,22,30.00,45.00,Tuesday
7,8.149999999999999
8,51.0
9,2.3000000000000003
10,225.0
11,0.0
12,0.0
13,0.0
838,22.036391166473972
839,26.38362838236421
902,22.0
903,25.693090438842777
1051,6070.0080938655465
1313,0.0
1078,5463007.284478991
2,1, 1, 1, 0,22,45.00,60.00,Tuesday
7,7.6
8,53.0
9,2.7
10,210.0
11,0.0
12,0.0
13,0.0
838,21.778035678266328
839,26.634296323069876
902,18.57790184020996
903,27.0
1051,117.94755741219025
1313,0.0
1078,106152.80167097122
2,1, 1, 1, 0,23, 0.00,15.00,Tuesday
7,7.249999999999999
8,54.25
9,2.6750000000000003
10,202.5
11,0.0
12,0.0
13,0.0
838,21.5546914837227
839,26.857587960897483
902,18.906208038330078
903,24.138744354248047
1051,117.94755741219025
1313,0.0
1078,106152.80167097122
2,1, 1, 1, 0,23,15.00,30.00,Tuesday
7,6.9
8,55.5
9,2.6500000000000004
10,195.0
11,0.0
12,0.0
13,0.0
838,21.33944891159072
839,27.0647246634837
902,16.85680389404297
903,25.8896484375
1051,117.94755741219025
1313,0.0
1078,106152.80167097122
2,1, 1, 1, 0,23,30.00,45.00,Tuesday
7,6.550000000000001
8,56.75
9,2.625
10,187.5
11,0.0
12,0.0
13,0.0
838,21.106838134316213
839,27.239323165241217
902,15.0
903,27.0
1051,117.94755741219025
1313,0.0
1078,106152.80167097122
2,1, 1, 1, 0,23,45.00,60.00,Tuesday
7,6.2
8,58.0
9,2.6
10,180.0
11,0.0
12,0.0
13,0.0
838,20.903032465539187
839,27.369932293335008
902,15.0
903,27.0
1051,117.94755741219025
1313,0.0
1078,106152.80167097122
2,1, 1, 1, 0,24, 0.00,15.00,Tuesday
7,5.65
8,60.75
9,2.725
10,167.5
11,0.0
12,0.0
13,0.0
838,20.723606949841745
839,27.487931573666184
902,18.845291137695313
903,23.477283477783203
1051,117.94755741219025
1313,0.0
1078,106152.80167097122
2,1, 1, 1, 0,24,15.00,30.00,Tuesday
7,5.1
8,63.5
9,2.85
10,155.0
11,0.0
12,0.0
13,0.0
838,20.59435806053194
839,27.60951952799368
902,20.382602691650394
903,24.277883529663086
1051,5413.560710348604
1313,0.0
1078,4872204.639313743
2,1, 1, 1, 0,24,30.00,45.00,Tuesday
7,4.55
8,66.25
9,2.975
10,142.5
11,0.0
12,0.0
13,0.0
838,20.449994559439816
839,27.758386764702756
902,15.743412971496582
903,24.834674835205078
1051,117.94755741219025
1313,0.0
1078,106152.80167097122
2,1, 1, 1, 0,24,45.00,60.00,Tuesday
7,4.0
8,69.0
9,3.1
10,130.0
11,0.0
12,0.0
13,0.0
838,20.919565389961207
839,26.889033916225735
902,22.0
903,27.0
1051,9676.685801591273
1313,0.0
1078,8709017.221432146
2,2, 1, 2, 0, 1, 0.00,15.00,Wednesday
7,3.75
8,70.25
9,2.85
10,127.5
11,0.0
12,0.0
13,0.0
838,20.839736838314646
839,26.79696767822225
902,20.826950073242188
903,25.077787399291992
1051,2949.2829126130778
1313,0.0
1078,2654354.62135177
2,2, 1, 2, 0, 1,15.00,30.00,Wednesday
7,3.5
8,71.5
9,2.6
10,125.0
11,0.0
12,0.0
13,0.0
838,20.491599769779775
839,27.194794387271223
902,19.684833526611328
903,24.736528396606445
1051,884.8129446184613
1313,0.0
1078,796331.6501566152
2,2, 1, 2, 0, 1,30.00,45.00,Wednesday
7,3.25
8,72.75
9,2.35
10,122.5
11,0.0
12,0.0
13,0.0
838,20.241957417066008
839,27.447308219082004
902,15.0
903,24.6058406829834
1051,318.2474477510143
1313,0.0
1078,286422.70297591283
2,2, 1, 2, 0, 1,45.00,60.00,Wednesday
7,3.0
8,74.0
9,2.1
10,120.0
11,0.0
12,0.0
13,0.0
838,20.076670558715733
839,27.565829783993102
902,15.0
903,27.0
1051,302.4028828088053
1313,0.0
1078,272162.5945279247
2,2, 1, 2, 0, 2, 0.00,15.00,Wednesday
7,3.25
8,72.75
9,2.35
10,125.0
11,0.0
12,0.0
13,0.0
838,19.935859847466567
839,27.597132195919688
902,15.0
903,27.0
1051,281.3603288596684
1313,0.0
1078,253224.29597370152
2,2, 1, 2, 0, 2,15.00,30.00,Wednesday
7,3.5
8,71.5
9,2.6
10,130.0
11,0.0
12,0.0
13,0.0
838,19.80430574653542
839,27.625719439630508
902,15.580818176269531
903,27.0
1051,266.95145615971575
1313,0.0
1078,240256.31054374418
2,2, 1, 2, 0, 2,30.00,45.00,Wednesday
7,3.75
8,70.25
9,2.85
10,135.0
11,0.0
12,0.0
13,0.0
838,19.6804697887617
839,27.67377079075115
902,18.149911880493164
903,27.0
1051,1009.8053815998693
1313,0.0
1078,908824.8434398824
2,2, 1, 2, 0, 2,45.00,60.00,Wednesday
7,4.0
8,69.0
9,3.1
10,140.0
11,0.0
12,0.0
13,0.0
838,19.587451870188463
839,27.75030889697146
902,17.499019622802734
903,27.0
1051,117.94755741219025
1313,0.0
1078,106152.80167097122
2,2, 1, 2, 0, 3, 0.00,15.00,Wednesday
7,4.0
8,67.75
9,2.45
10,137.5
11,0.0
12,0.0
13,0.0
838,19.50751167148631
839,27.838382105108554
902,17.632705688476563
903,26.86141586303711
1051,117.94755741219025
1313,0.0
1078,106152.80167097122
2,2, 1, 2, 0, 3,15.00,30.00,Wednesday
7,4.0
8,66.5
9,1.8
10,135.0
11,0.0
12,0.0
13,0.0
838,19.42834898036108
839,27.94381329865672
902,18.37855339050293
903,27.0
1051,3145.849511111194
1313,0.0
1078,2831264.560000074
2,2, 1, 2, 0, 3,30.00,45.00,Wednesday
7,4.0
8,65.25
9,1.15
10,132.5
11,0.0
12,0.0
13,0.0
838,19.34360226418721
839,28.062311366553182
902,16.510250091552734
903,27.0
1051,117.94755741219025
1313,0.0
1078,106152.80167097122
2,2, 1, 2, 0, 3,45.00,60.00,Wednesday
7,4.0
8,64.0
9,0.5
10,130.0
11,0.0
12,0.0
13,0.0
838,19.761982696162637
839,27.3237415571492
902,20.118070602416992
903,26.795570373535156
1051,9543.934355474299
1313,0.0
1078,8589540.919926867
2,2, 1, 2, 0, 4, 0.00,15.00,Wednesday
7,4.25
8,61.75
9,1.15
10,130.0
11,0.0
12,0.0
13,0.0
838,20.177664890193718
839,26.588720588091164
902,21.795082092285156
903,27.0
1051,9676.685801591275
1313,0.0
1078,8709017.221432146
2,2, 1, 2, 0, 4,15.00,30.00,Wednesday
7,4.5
8,59.5
9,1.8
10,130.0
11,0.0
12,0.0
13,0.0
838,19.917254844758716
839,26.981336770402397
902,19.85668182373047
903,25.42562484741211
1051,3064.9358321575055
1313,0.0
1078,2758442.2489417554
2,2, 1, 2, 0, 4,30.00,45.00,Wednesday
7,4.75
8,57.25
9,2.45
10,130.0
11,0.0
12,0.0
13,0.0
838,19.728823715762427
839,27.23674461634057
902,19.72599983215332
903,25.987089157104492
1051,4857.657361927459
1313,0.0
1078,4371891.625734713
2,2, 1, 2, 0, 4,45.00,60.00,Wednesday
7,5.0
8,55.0
9,3.1
10,130.0
11,0.0
12,0.0
13,0.0
838,19.56412126265436
839,27.45941440985367
902,15.952269554138184
903,27.0
1051,117.94755741219024
1313,0.0
1078,106152.80167097121
2,2, 1, 2, 0, 5, 0.00,15.00,Wednesday
7,4.75
8,56.0
9,2.575
10,127.5
11,0.0
12,0.0
13,0.0
838,19.436580625804243
839,27.626131282158262
902,18.39666748046875
903,24.439355850219727
1051,780.6740114658356
1313,0.0
1078,702606.6103192521
2,2, 1, 2, 0, 5,15.00,30.00,Wednesday
7,4.5
8,57.0
9,2.05
10,125.0
11,0.0
12,0.0
13,0.0
838,19.33869052111934
839,27.7325068895504
902,16.64235496520996
903,27.0
1051,117.94755741219025
1313,0.0
1078,106152.80167097122
2,2, 1, 2, 0, 5,30.00,45.00,Wednesday
7,4.25
8,58.0
9,1.525
10,122.5
11,0.0
12,0.0
13,0.0
838,19.25838275789769
839,27.821142785323783
902,15.0
903,27.0
1051,117.94755741219025
1313,0.0
1078,106152.80167097122
2,2, 1, 2, 0, 5,45.00,60.00,Wednesday
7,4.0
8,59.0
9,1.0
10,120.0
11,0.0
12,0.0
13,0.0
838,19.187793562962785
839,27.91144067491943
902,15.0
903,27.0
1051,117.94755741219025
1313,0.0
1078,106152.80167097122
2,2, 1, 2, 0, 6, 0.00,15.00,Wednesday
7,4.0
8,59.0
9,1.125
10,120.0
11,0.0
12,0.0
13,0.0
838,19.11208233433612
839,28.02074259063999
902,15.003982543945313
903,24.64623260498047
1051,117.94755741219025
1313,0.0
1078,106152.80167097122
2,2, 1, 2, 0, 6,15.00,30.00,Wednesday
7,4.0
8,59.0
9,1.25
10,120.0
11,0.0
12,0.0
13,0.0
838,19.01270376540935
839,28.174463675207594
902,16.537006378173828
903,23.25
1051,117.94755741219025
1313,0.0
1078,106152.80167097122
2,2, 1, 2, 0, 6,30.00,45.00,Wednesday
7,4.0
8,59.0
9,1.375
10,120.0
11,0.0
12,0.0
13,0.0
838,18.9219742845848
839,28.311500431540004
902,15.0
903,26.979883193969727
1051,191.375630085281
1313,0.0
1078,172238.0670767529
2,2, 1, 2, 0, 6,45.00,60.00,Wednesday
7,4.0
8,59.0
9,1.5
10,120.0
11,0.0
12,0.0
13,0.0
838,18.839167583166446
839,28.432265933754653
902,15.519651412963867
903,27.0
1051,219.94294733813402
1313,0.0
1078,197948.6526043206
2,2, 1, 2, 0, 7, 0.00,15.00,Wednesday
7,4.5
8,57.0
9,1.65
10,117.5
11,0.0
12,0.0
13,0.0
838,18.772774048000073
839,28.449785673897708
902,17.53262710571289
903,26.11157989501953
1051,2809.8577787900313
1313,0.0
1078,2528872.0009110286
2,2, 1, 2, 0, 7,15.00,30.00,Wednesday
7,5.0
8,55.0
9,1.8
10,115.0
11,0.0
12,0.0
13,0.0
838,18.701495367074013
839,28.41682906260898
902,15.0
903,23.25
1051,868.9445647722458
1313,0.0
1078,782050.1082950212
2,2, 1, 2, 0, 7,30.00,45.00,Wednesday
7,5.5
8,53.0
9,1.9500000000000002
10,112.5
11,0.0
12,0.0
13,0.0
838,18.639925785768323
839,28.35033996625107
902,15.136634826660156
903,24.79352378845215
1051,853.9850574188239
1313,0.0
1078,768586.5516769415
2,2, 1, 2, 0, 7,45.00,60.00,Wednesday
7,6.0
8,51.0
9,2.1
10,110.0
11,0.0
12,0.0
13,0.0
838,18.584979475242505