Program Version,EnergyPlus, Version 25.1.0-68a4a7c774, YMD=2026.04.16 10:15
1,5,Environment Title[],Latitude[deg],Longitude[deg],Time Zone[],Elevation[m]
2,8,Day of Simulation[],Month[],Day of Month[],DST Indicator[1=yes 0=no],Hour[],StartMinute[],EndMinute[],DayType
3,5,Cumulative Day of Simulation[],Month[],Day of Month[],DST Indicator[1=yes 0=no],DayType  ! When Daily Meters Requested
4,2,Cumulative Days of Simulation[],Month[]  ! When Monthly Meters Requested
5,1,Cumulative Days of Simulation[] ! When Run Period Meters Requested
6,1,Calendar Year of Simulation[] ! When Annual Meters Requested
1078,1,Electricity:HVAC [J] !TimeStep
End of Data Dictionary
1,RUNPERIOD 1,  32.17,-110.88,  -7.00, 809.00
2,1, 1, 1, 0, 1, 0.00,15.00,Tuesday
1078,106152.80167097122
2,1, 1, 1, 0, 1,15.00,30.00,Tuesday
1078,106152.80167097122
2,1, 1, 1, 0, 1,30.00,45.00,Tuesday
1078,106152.80167097122
2,1, 1, 1, 0, 1,45.00,60.00,Tuesday
1078,106152.80167097122
2,1, 1, 1, 0, 2, 0.00,15.00,Tuesday
1078,8709017.221432146
2,1, 1, 1, 0, 2,15.00,30.00,Tuesday
1078,8709017.221432146
2,1, 1, 1, 0, 2,30.00,45.00,Tuesday
1078,4926370.279383297
2,1, 1, 1, 0, 2,45.00,60.00,Tuesday
1078,106152.80167097122
2,1, 1, 1, 0, 3, 0.00,15.00,Tuesday
1078,106152.80167097122
2,1, 1, 1, 0, 3,15.00,30.00,Tuesday
1078,106152.80167097122
2,1, 1, 1, 0, 3,30.00,45.00,Tuesday
1078,170328.67720461625
2,1, 1, 1, 0, 3,45.00,60.00,Tuesday
1078,458743.7908053553
2,1, 1, 1, 0, 4, 0.00,15.00,Tuesday
1078,8741201.843211288
2,1, 1, 1, 0, 4,15.00,30.00,Tuesday
1078,137805.67529680073
2,1, 1, 1, 0, 4,30.00,45.00,Tuesday
1078,129648.81665041034
2,1, 1, 1, 0, 4,45.00,60.00,Tuesday
1078,121411.29019944524
2,1, 1, 1, 0, 5, 0.00,15.00,Tuesday
1078,7807408.6023210455
2,1, 1, 1, 0, 5,15.00,30.00,Tuesday
1078,8763017.221432146
2,1, 1, 1, 0, 5,30.00,45.00,Tuesday
1078,205152.80167097124
2,1, 1, 1, 0, 5,45.00,60.00,Tuesday
1078,8862271.480625821
2,1, 1, 1, 0, 6, 0.00,15.00,Tuesday
1078,268152.8016709712
2,1, 1, 1, 0, 6,15.00,30.00,Tuesday
1078,328780.4191074481
2,1, 1, 1, 0, 6,30.00,45.00,Tuesday
1078,379365.8568293939
2,1, 1, 1, 0, 6,45.00,60.00,Tuesday
1078,9041779.661684392
2,1, 1, 1, 0, 7, 0.00,15.00,Tuesday
1078,1142299.6642894032
2,1, 1, 1, 0, 7,15.00,30.00,Tuesday
1078,1118588.5542412398
2,1, 1, 1, 0, 7,30.00,45.00,Tuesday
1078,1093840.6895566634
2,1, 1, 1, 0, 7,45.00,60.00,Tuesday
1078,9681557.913279405
2,1, 1, 1, 0, 8, 0.00,15.00,Tuesday
1078,1136372.431721806
2,1, 1, 1, 0, 8,15.00,30.00,Tuesday
1078,9402693.014590474
2,1, 1, 1, 0, 8,30.00,45.00,Tuesday
1078,1257131.8589536953
2,1, 1, 1, 0, 8,45.00,60.00,Tuesday
1078,1323905.5576570602
2,1, 1, 1, 0, 9, 0.00,15.00,Tuesday
1078,1060903.1219083162
2,1, 1, 1, 0, 9,15.00,30.00,Tuesday
1078,1235812.40535504
2,1, 1, 1, 0, 9,30.00,45.00,Tuesday
1078,7397177.596432359
2,1, 1, 1, 0, 9,45.00,60.00,Tuesday
1078,562673.5369030817
2,1, 1, 1, 0,10, 0.00,15.00,Tuesday
1078,781034.8899795705
2,1, 1, 1, 0,10,15.00,30.00,Tuesday
1078,111617.82486288565
2,1, 1, 1, 0,10,30.00,45.00,Tuesday
1078,109605.98989344655
2,1, 1, 1, 0,10,45.00,60.00,Tuesday
1078,202725.36874625966
2,1, 1, 1, 0,11, 0.00,15.00,Tuesday
1078,106152.80167097121
2,1, 1, 1, 0,11,15.00,30.00,Tuesday
1078,106152.80167097122
2,1, 1, 1, 0,11,30.00,45.00,Tuesday
1078,456559.51431151724
2,1, 1, 1, 0,11,45.00,60.00,Tuesday
1078,106152.80167097122
2,1, 1, 1, 0,12, 0.00,15.00,Tuesday
1078,587478.6347853421
2,1, 1, 1, 0,12,15.00,30.00,Tuesday
1078,136709.89560225906
2,1, 1, 1, 0,12,30.00,45.00,Tuesday
1078,624571.6305551248
2,1, 1, 1, 0,12,45.00,60.00,Tuesday
1078,106152.80167097122
2,1, 1, 1, 0,13, 0.00,15.00,Tuesday
1078,1030814.883433742
2,1, 1, 1, 0,13,15.00,30.00,Tuesday
1078,814617.2542776286
2,1, 1, 1, 0,13,30.00,45.00,Tuesday
1078,899003.4705268501
2,1, 1, 1, 0,13,45.00,60.00,Tuesday
1078,106152.80167097122
2,1, 1, 1, 0,14, 0.00,15.00,Tuesday
1078,1617644.160010237
2,1, 1, 1, 0,14,15.00,30.00,Tuesday
1078,1156803.989714714
2,1, 1, 1, 0,14,30.00,45.00,Tuesday
1078,1346221.4565459692
2,1, 1, 1, 0,14,45.00,60.00,Tuesday
1078,1286511.781799857
2,1, 1, 1, 0,15, 0.00,15.00,Tuesday
1078,454485.83609718375
2,1, 1, 1, 0,15,15.00,30.00,Tuesday
1078,1151776.118125833
2,1, 1, 1, 0,15,30.00,45.00,Tuesday
1078,1768933.0219569635
2,1, 1, 1, 0,15,45.00,60.00,Tuesday
1078,1566981.1763013685
2,1, 1, 1, 0,16, 0.00,15.00,Tuesday
1078,1553025.3016231875
2,1, 1, 1, 0,16,15.00,30.00,Tuesday
1078,1568580.1717869595
2,1, 1, 1, 0,16,30.00,45.00,Tuesday
1078,108394.44846387011
2,1, 1, 1, 0,16,45.00,60.00,Tuesday
1078,1654734.4931048765
2,1, 1, 1, 0,17, 0.00,15.00,Tuesday
1078,1178946.5487580937
2,1, 1, 1, 0,17,15.00,30.00,Tuesday
1078,1364602.662402757
2,1, 1, 1, 0,17,30.00,45.00,Tuesday
1078,1862369.7298307375
2,1, 1, 1, 0,17,45.00,60.00,Tuesday
1078,182864.78014944284
2,1, 1, 1, 0,18, 0.00,15.00,Tuesday
1078,1495084.084521346
2,1, 1, 1, 0,18,15.00,30.00,Tuesday
1078,146736.65911536972
2,1, 1, 1, 0,18,30.00,45.00,Tuesday
1078,1000650.7715581527
2,1, 1, 1, 0,18,45.00,60.00,Tuesday
1078,106152.80167097122
2,1, 1, 1, 0,19, 0.00,15.00,Tuesday
1078,654916.5836196208
2,1, 1, 1, 0,19,15.00,30.00,Tuesday
1078,106152.80167097122
2,1, 1, 1, 0,19,30.00,45.00,Tuesday
1078,284654.1500134257
2,1, 1, 1, 0,19,45.00,60.00,Tuesday
1078,106152.80167097122
2,1, 1, 1, 0,20, 0.00,15.00,Tuesday
1078,173864.62405184328
2,1, 1, 1, 0,20,15.00,30.00,Tuesday
1078,106152.80167097122
2,1, 1, 1, 0,20,30.00,45.00,Tuesday
1078,106152.80167097122
2,1, 1, 1, 0,20,45.00,60.00,Tuesday
1078,106152.80167097122
2,1, 1, 1, 0,21, 0.00,15.00,Tuesday
1078,106152.80167097122
2,1, 1, 1, 0,21,15.00,30.00,Tuesday
1078,5152830.995493848
2,1, 1, 1, 0,21,30.00,45.00,Tuesday
1078,3307386.4895733315
2,1, 1, 1, 0,21,45.00,60.00,Tuesday
1078,106152.80167097122
2,1, 1, 1, 0,22, 0.00,15.00,Tuesday
1078,106152.80167097122
2,1, 1, 1, 0,22,15.00,30.00,Tuesday
1078,106152.80167097122
2,1, 1, 1, 0,22,30.00,45.00,Tuesday
1078,106152.80167097122
2,1, 1, 1, 0,22,45.00,60.00,Tuesday
1078,106152.80167097122
2,1, 1, 1, 0,23, 0.00,15.00,Tuesday
1078,106152.80167097122
2,1, 1, 1, 0,23,15.00,30.00,Tuesday
1078,106152.80167097122
2,1, 1, 1, 0,23,30.00,45.00,Tuesday
1078,106152.80167097122
2,1, 1, 1, 0,23,45.00,60.00,Tuesday
1078,106152.80167097122
2,1, 1, 1, 0,24, 0.00,15.00,Tuesday
1078,4664159.974357541
2,1, 1, 1, 0,24,15.00,30.00,Tuesday
1078,106152.80167097122
2,1, 1, 1, 0,24,30.00,45.00,Tuesday
1078,106152.80167097121
2,1, 1, 1, 0,24,45.00,60.00,Tuesday
1078,4936897.038422335
2,2, 1, 2, 0, 1, 0.00,15.00,Wednesday
1078,278868.0659516797
2,2, 1, 2, 0, 1,15.00,30.00,Wednesday
1078,261856.69862310213
2,2, 1, 2, 0, 1,30.00,45.00,Wednesday
1078,248176.13792037143
2,2, 1, 2, 0, 1,45.00,60.00,Wednesday
1078,233534.87034373058
2,2, 1, 2, 0, 2, 0.00,15.00,Wednesday
1078,220303.4822835229
2,2, 1, 2, 0, 2,15.00,30.00,Wednesday
1078,205545.2490503798
2,2, 1, 2, 0, 2,30.00,45.00,Wednesday
1078,8786320.86833854
2,2, 1, 2, 0, 2,45.00,60.00,Wednesday
1078,106152.80167097122
2,2, 1, 2, 0, 3, 0.00,15.00,Wednesday
1078,106152.80167097121
2,2, 1, 2, 0, 3,15.00,30.00,Wednesday
1078,106152.80167097122
2,2, 1, 2, 0, 3,30.00,45.00,Wednesday
1078,106152.80167097122
2,2, 1, 2, 0, 3,45.00,60.00,Wednesday
1078,106152.80167097122
2,2, 1, 2, 0, 4, 0.00,15.00,Wednesday
1078,8709017.221432146
2,2, 1, 2, 0, 4,15.00,30.00,Wednesday
1078,106152.80167097122
2,2, 1, 2, 0, 4,30.00,45.00,Wednesday
1078,1693025.8241659685
2,2, 1, 2, 0, 4,45.00,60.00,Wednesday
1078,106152.80167097122
2,2, 1, 2, 0, 5, 0.00,15.00,Wednesday
1078,106152.80167097122
2,2, 1, 2, 0, 5,15.00,30.00,Wednesday
1078,151037.9134902443
2,2, 1, 2, 0, 5,30.00,45.00,Wednesday
1078,5818607.516667747
2,2, 1, 2, 0, 5,45.00,60.00,Wednesday
1078,196024.0073322761
2,2, 1, 2, 0, 6, 0.00,15.00,Wednesday
1078,217164.60918234562
2,2, 1, 2, 0, 6,15.00,30.00,Wednesday
1078,8844231.697696352
2,2, 1, 2, 0, 6,30.00,45.00,Wednesday
1078,8830581.460554728
2,2, 1, 2, 0, 6,45.00,60.00,Wednesday
1078,209555.57278112537
2,2, 1, 2, 0, 7, 0.00,15.00,Wednesday
1078,793854.4846467756
2,2, 1, 2, 0, 7,15.00,30.00,Wednesday
1078,783334.5885145738
2,2, 1, 2, 0, 7,30.00,45.00,Wednesday
1078,9377873.364268841
2,2, 1, 2, 0, 7,45.00,60.00,Wednesday
1078,747542.4841209374
2,2, 1, 2, 0, 8, 0.00,15.00,Wednesday
1078,9350625.575300619
2,2, 1, 2, 0, 8,15.00,30.00,Wednesday
1078,741304.6913200547
2,2, 1, 2, 0, 8,30.00,45.00,Wednesday
1078,742901.7805323916
2,2, 1, 2, 0, 8,45.00,60.00,Wednesday
1078,748684.5283283971
2,2, 1, 2, 0, 9, 0.00,15.00,Wednesday
1078,862111.3039492109
2,2, 1, 2, 0, 9,15.00,30.00,Wednesday
1078,106152.80167097122
2,2, 1, 2, 0, 9,30.00,45.00,Wednesday
1078,324330.8457808318
2,2, 1, 2, 0, 9,45.00,60.00,Wednesday
1078,135874.4277338065
2,2, 1, 2, 0,10, 0.00,15.00,Wednesday
1078,214123.18258664053
2,2, 1, 2, 0,10,15.00,30.00,Wednesday
1078,2840679.495047719
2,2, 1, 2, 0,10,30.00,45.00,Wednesday
1078,556792.8369658345
2,2, 1, 2, 0,10,45.00,60.00,Wednesday
1078,106152.8016709712
2,2, 1, 2, 0,11, 0.00,15.00,Wednesday
1078,1012248.7178286116
2,2, 1, 2, 0,11,15.00,30.00,Wednesday
1078,517634.7932635754
2,2, 1, 2, 0,11,30.00,45.00,Wednesday
1078,1988565.684930173
2,2, 1, 2, 0,11,45.00,60.00,Wednesday
1078,1404080.2618954084
2,2, 1, 2, 0,12, 0.00,15.00,Wednesday
1078,1693973.1940453867
2,2, 1, 2, 0,12,15.00,30.00,Wednesday
1078,1718396.3372994838
2,2, 1, 2, 0,12,30.00,45.00,Wednesday
1078,1856389.8235941702
2,2, 1, 2, 0,12,45.00,60.00,Wednesday
1078,134985.35320832249
2,2, 1, 2, 0,13, 0.00,15.00,Wednesday
1078,2375031.6520679947
2,2, 1, 2, 0,13,15.00,30.00,Wednesday
1078,2162197.173516943
2,2, 1, 2, 0,13,30.00,45.00,Wednesday
1078,2169194.80266809
2,2, 1, 2, 0,13,45.00,60.00,Wednesday
1078,2269162.6130624
2,2, 1, 2, 0,14, 0.00,15.00,Wednesday
1078,478862.0332231173
2,2, 1, 2, 0,14,15.00,30.00,Wednesday
1078,2366924.3815386007
2,2, 1, 2, 0,14,30.00,45.00,Wednesday
1078,1071512.2080167676
2,2, 1, 2, 0,14,45.00,60.00,Wednesday
1078,6379565.0085938675
2,2, 1, 2, 0,15, 0.00,15.00,Wednesday
1078,699144.6083158477
2,2, 1, 2, 0,15,15.00,30.00,Wednesday
1078,6988516.40262107
2,2, 1, 2, 0,15,30.00,45.00,Wednesday
1078,1501030.0813450683
2,2, 1, 2, 0,15,45.00,60.00,Wednesday
1078,6912927.900501577
2,2, 1, 2, 0,16, 0.00,15.00,Wednesday
1078,5381158.304184378
2,2, 1, 2, 0,16,15.00,30.00,Wednesday
1078,2876911.569329223
2,2, 1, 2, 0,16,30.00,45.00,Wednesday
1078,5471371.85897887
2,2, 1, 2, 0,16,45.00,60.00,Wednesday
1078,5580304.011068484
2,2, 1, 2, 0,17, 0.00,15.00,Wednesday
1078,2160483.4637022465
2,2, 1, 2, 0,17,15.00,30.00,Wednesday
1078,5774803.370263653
2,2, 1, 2, 0,17,30.00,45.00,Wednesday
1078,4879096.898858167
2,2, 1, 2, 0,17,45.00,60.00,Wednesday
1078,4589639.847732715
2,2, 1, 2, 0,18, 0.00,15.00,Wednesday
1078,4197855.63702308
2,2, 1, 2, 0,18,15.00,30.00,Wednesday
1078,563618.9403663042
2,2, 1, 2, 0,18,30.00,45.00,Wednesday
1078,548830.9137165238
2,2, 1, 2, 0,18,45.00,60.00,Wednesday
1078,2675339.551116191
2,2, 1, 2, 0,19, 0.00,15.00,Wednesday
1078,1054286.5896273681
2,2, 1, 2, 0,19,15.00,30.00,Wednesday
1078,519108.9781388808
2,2, 1, 2, 0,19,30.00,45.00,Wednesday
1078,106152.80167097121
2,2, 1, 2, 0,19,45.00,60.00,Wednesday
1078,106152.80167097121
2,2, 1, 2, 0,20, 0.00,15.00,Wednesday
1078,106152.80167097122
2,2, 1, 2, 0,20,15.00,30.00,Wednesday
1078,400027.9233218011
2,2, 1, 2, 0,20,30.00,45.00,Wednesday
1078,106152.80167097122
2,2, 1, 2, 0,20,45.00,60.00,Wednesday
1078,106152.80167097122
2,2, 1, 2, 0,21, 0.00,15.00,Wednesday
1078,106152.80167097122
2,2, 1, 2, 0,21,15.00,30.00,Wednesday
1078,106152.80167097122
2,2, 1, 2, 0,21,30.00,45.00,Wednesday
1078,106152.80167097122
2,2, 1, 2, 0,21,45.00,60.00,Wednesday
1078,106152.80167097122
2,2, 1, 2, 0,22, 0.00,15.00,Wednesday
1078,106152.80167097122
2,2, 1, 2, 0,22,15.00,30.00,Wednesday
1078,106152.80167097122
2,2, 1, 2, 0,22,30.00,45.00,Wednesday
1078,106152.80167097122
2,2, 1, 2, 0,22,45.00,60.00,Wednesday
1078,106152.80167097122
2,2, 1, 2, 0,23, 0.00,15.00,Wednesday
1078,106152.80167097122
2,2, 1, 2, 0,23,15.00,30.00,Wednesday
1078,106152.80167097122
2,2, 1, 2, 0,23,30.00,45.00,Wednesday
1078,106152.80167097122
2,2, 1, 2, 0,23,45.00,60.00,Wednesday
1078,106152.80167097122
2,2, 1, 2, 0,24, 0.00,15.00,Wednesday
1078,198274.2916797073
2,2, 1, 2, 0,24,15.00,30.00,Wednesday
1078,106152.80167097122
2,2, 1, 2, 0,24,30.00,45.00,Wednesday
1078,106152.80167097122
2,2, 1, 2, 0,24,45.00,60.00,Wednesday
1078,106152.80167097122
2,3, 1, 3, 0, 1, 0.00,15.00,Thursday
1078,106152.80167097122
2,3, 1, 3, 0, 1,15.00,30.00,Thursday
1078,106152.80167097122
2,3, 1, 3, 0, 1,30.00,45.00,Thursday
1078,8709017.221432146
2,3, 1, 3, 0, 1,45.00,60.00,Thursday
1078,106152.80167097122
2,3, 1, 3, 0, 2, 0.00,15.00,Thursday
1078,106152.80167097121
2,3, 1, 3, 0, 2,15.00,30.00,Thursday
1078,106152.80167097122
2,3, 1, 3, 0, 2,30.00,45.00,Thursday
1078,106152.80167097122
2,3, 1, 3, 0, 2,45.00,60.00,Thursday
1078,106152.80167097122
2,3, 1, 3, 0, 3, 0.00,15.00,Thursday
1078,8709017.221432146
2,3, 1, 3, 0, 3,15.00,30.00,Thursday
1078,106152.80167097122
2,3, 1, 3, 0, 3,30.00,45.00,Thursday
1078,106152.80167097121
2,3, 1, 3, 0, 3,45.00,60.00,Thursday
1078,106152.80167097122
2,3, 1, 3, 0, 4, 0.00,15.00,Thursday
1078,106152.80167097122
2,3, 1, 3, 0, 4,15.00,30.00,Thursday
1078,8709017.221432146
2,3, 1, 3, 0, 4,30.00,45.00,Thursday
1078,106152.80167097122
2,3, 1, 3, 0, 4,45.00,60.00,Thursday
1078,106152.80167097121
2,3, 1, 3, 0, 5, 0.00,15.00,Thursday
1078,8709017.221432146
2,3, 1, 3, 0, 5,15.00,30.00,Thursday
1078,106152.80167097122
2,3, 1, 3, 0, 5,30.00,45.00,Thursday
1078,106152.80167097122
2,3, 1, 3, 0, 5,45.00,60.00,Thursday
1078,106152.80167097122
2,3, 1, 3, 0, 6, 0.00,15.00,Thursday
1078,106152.80167097122
2,3, 1, 3, 0, 6,15.00,30.00,Thursday
1078,106152.80167097122
2,3, 1, 3, 0, 6,30.00,45.00,Thursday
1078,106152.80167097122
2,3, 1, 3, 0, 6,45.00,60.00,Thursday
1078,106152.80167097122
2,3, 1, 3, 0, 7, 0.00,15.00,Thursday
1078,9006023.17061814
2,3, 1, 3, 0, 7,15.00,30.00,Thursday
1078,8971623.356869517
2,3, 1, 3, 0, 7,30.00,45.00,Thursday
1078,332506.03084580007
2,3, 1, 3, 0, 7,45.00,60.00,Thursday
1078,320493.2149990731
2,3, 1, 3, 0, 8, 0.00,15.00,Thursday
1078,308182.8880246917
2,3, 1, 3, 0, 8,15.00,30.00,Thursday
1078,297575.322744105
2,3, 1, 3, 0, 8,30.00,45.00,Thursday
1078,284896.9149267456
2,3, 1, 3, 0, 8,45.00,60.00,Thursday
1078,7661835.169730992
2,3, 1, 3, 0, 9, 0.00,15.00,Thursday
1078,187128.01970227953
2,3, 1, 3, 0, 9,15.00,30.00,Thursday
1078,233259.58801706333
2,3, 1, 3, 0, 9,30.00,45.00,Thursday
1078,2398779.6311706533
2,3, 1, 3, 0, 9,45.00,60.00,Thursday
1078,106152.80167097118
2,3, 1, 3, 0,10, 0.00,15.00,Thursday
1078,451493.37928138534
2,3, 1, 3, 0,10,15.00,30.00,Thursday
1078,607385.9059026196
2,3, 1, 3, 0,10,30.00,45.00,Thursday
1078,907397.5052781311
2,3, 1, 3, 0,10,45.00,60.00,Thursday
1078,798759.392984785
2,3, 1, 3, 0,11, 0.00,15.00,Thursday
1078,1164352.6502019663
2,3, 1, 3, 0,11,15.00,30.00,Thursday
1078,1993423.1391339211
2,3, 1, 3, 0,11,30.00,45.00,Thursday
1078,1070538.0549872867
2,3, 1, 3, 0,11,45.00,60.00,Thursday
1078,3219899.3819537335
2,3, 1, 3, 0,12, 0.00,15.00,Thursday
1078,3291601.843911974
2,3, 1, 3, 0,12,15.00,30.00,Thursday
1078,3152867.9873015704
2,3, 1, 3, 0,12,30.00,45.00,Thursday
1078,3380466.66006261
2,3, 1, 3, 0,12,45.00,60.00,Thursday
1078,3577803.529950997
2,3, 1, 3, 0,13, 0.00,15.00,Thursday
1078,595439.5623091405
2,3, 1, 3, 0,13,15.00,30.00,Thursday
1078,1419810.5866696148
2,3, 1, 3, 0,13,30.00,45.00,Thursday
1078,5565433.720126011
2,3, 1, 3, 0,13,45.00,60.00,Thursday
1078,4587735.317858078
2,3, 1, 3, 0,14, 0.00,15.00,Thursday
1078,4831698.19989865
2,3, 1, 3, 0,14,15.00,30.00,Thursday
1078,4814771.3934166245
2,3, 1, 3, 0,14,30.00,45.00,Thursday
1078,4000204.224148715
2,3, 1, 3, 0,14,45.00,60.00,Thursday
1078,5058875.359446038
2,3, 1, 3, 0,15, 0.00,15.00,Thursday
1078,526970.090432216
2,3, 1, 3, 0,15,15.00,30.00,Thursday
1078,6584456.617617
2,3, 1, 3, 0,15,30.00,45.00,Thursday
1078,5481216.958330618
2,3, 1, 3, 0,15,45.00,60.00,Thursday
1078,5465997.9088248685
2,3, 1, 3, 0,16, 0.00,15.00,Thursday
1078,2136407.0082517676
2,3, 1, 3, 0,16,15.00,30.00,Thursday
1078,1709128.672238313
2,3, 1, 3, 0,16,30.00,45.00,Thursday
1078,7765880.504945715
2,3, 1, 3, 0,16,45.00,60.00,Thursday
1078,2389559.7858921485
2,3, 1, 3, 0,17, 0.00,15.00,Thursday
1078,6492446.044241162
2,3, 1, 3, 0,17,15.00,30.00,Thursday
1078,2166341.073760519
2,3, 1, 3, 0,17,30.00,45.00,Thursday
1078,4906262.89542745
2,3, 1, 3, 0,17,45.00,60.00,Thursday
1078,5488384.890669431
2,3, 1, 3, 0,18, 0.00,15.00,Thursday
1078,1703884.8934313015
2,3, 1, 3, 0,18,15.00,30.00,Thursday
1078,3064206.900813857
2,3, 1, 3, 0,18,30.00,45.00,Thursday
1078,2036312.9488463285
2,3, 1, 3, 0,18,45.00,60.00,Thursday
1078,1460725.7343141993
2,3, 1, 3, 0,19, 0.00,15.00,Thursday
1078,584954.3422189185
2,3, 1, 3, 0,19,15.00,30.00,Thursday
1078,106152.80167097121
2,3, 1, 3, 0,19,30.00,45.00,Thursday
1078,106152.80167097121
2,3, 1, 3, 0,19,45.00,60.00,Thursday
1078,640924.0491913299
2,3, 1, 3, 0,20, 0.00,15.00,Thursday
1078,187293.4883671792
2,3, 1, 3, 0,20,15.00,30.00,Thursday
1078,106152.80167097122
2,3, 1, 3, 0,20,30.00,45.00,Thursday
1078,154347.79743949306
2,3, 1, 3, 0,20,45.00,60.00,Thursday
1078,106152.80167097122
2,3, 1, 3, 0,21, 0.00,15.00,Thursday
1078,106152.80167097122
2,3, 1, 3, 0,21,15.00,30.00,Thursday
1078,3581732.5422536484
2,3, 1, 3, 0,21,30.00,45.00,Thursday
1078,106152.80167097122
2,3, 1, 3, 0,21,45.00,60.00,Thursday
1078,106152.80167097121
2,3, 1, 3, 0,22, 0.00,15.00,Thursday
1078,106152.80167097122
2,3, 1, 3, 0,22,15.00,30.00,Thursday
1078,6434013.162655261
2,3, 1, 3, 0,22,30.00,45.00,Thursday
1078,106152.80167097122
2,3, 1, 3, 0,22,45.00,60.00,Thursday
1078,106152.80167097122
2,3, 1, 3, 0,23, 0.00,15.00,Thursday
1078,106152.80167097121
2,3, 1, 3, 0,23,15.00,30.00,Thursday
1078,106152.80167097122
2,3, 1, 3, 0,23,30.00,45.00,Thursday
1078,106152.80167097122
2,3, 1, 3, 0,23,45.00,60.00,Thursday
1078,106152.80167097122
2,3, 1, 3, 0,24, 0.00,15.00,Thursday
1078,106152.80167097122
2,3, 1, 3, 0,24,15.00,30.00,Thursday
1078,106152.80167097122
2,3, 1, 3, 0,24,30.00,45.00,Thursday
1078,106152.80167097122
2,3, 1, 3, 0,24,45.00,60.00,Thursday
1078,106152.80167097122
2,4, 1, 4, 0, 1, 0.00,15.00,Friday
1078,106152.80167097122
2,4, 1, 4, 0, 1,15.00,30.00,Friday
1078,106152.80167097122
2,4, 1, 4, 0, 1,30.00,45.00,Friday
1078,106152.80167097122
2,4, 1, 4, 0, 1,45.00,60.00,Friday
1078,106152.80167097122
2,4, 1, 4, 0, 2, 0.00,15.00,Friday
1078,106152.80167097122
2,4, 1, 4, 0, 2,15.00,30.00,Friday
1078,4936687.281593564
2,4, 1, 4, 0, 2,30.00,45.00,Friday
1078,106152.80167097122
2,4, 1, 4, 0, 2,45.00,60.00,Friday
1078,106152.80167097121
2,4, 1, 4, 0, 3, 0.00,15.00,Friday
1078,4092589.5204225737
2,4, 1, 4, 0, 3,15.00,30.00,Friday
1078,7142215.401762782
2,4, 1, 4, 0, 3,30.00,45.00,Friday
1078,106152.80167097121
2,4, 1, 4, 0, 3,45.00,60.00,Friday
1078,106152.80167097121
2,4, 1, 4, 0, 4, 0.00,15.00,Friday
1078,106152.80167097122
2,4, 1, 4, 0, 4,15.00,30.00,Friday
1078,3104344.310023169
2,4, 1, 4, 0, 4,30.00,45.00,Friday
1078,106152.80167097122
2,4, 1, 4, 0, 4,45.00,60.00,Friday
1078,106152.80167097122
2,4, 1, 4, 0, 5, 0.00,15.00,Friday
1078,106152.80167097122
2,4, 1, 4, 0, 5,15.00,30.00,Friday
1078,106152.80167097122
2,4, 1, 4, 0, 5,30.00,45.00,Friday
1078,106152.80167097122
2,4, 1, 4, 0, 5,45.00,60.00,Friday
1078,8473487.233047778
2,4, 1, 4, 0, 6, 0.00,15.00,Friday
1078,106152.80167097122
2,4, 1, 4, 0, 6,15.00,30.00,Friday
1078,106152.80167097121
2,4, 1, 4, 0, 6,30.00,45.00,Friday
1078,106152.80167097122
2,4, 1, 4, 0, 6,45.00,60.00,Friday
1078,106152.80167097122
2,4, 1, 4, 0, 7, 0.00,15.00,Friday
1078,502390.3686269146
2,4, 1, 4, 0, 7,15.00,30.00,Friday
1078,516597.5479456708
2,4, 1, 4, 0, 7,30.00,45.00,Friday
1078,530800.5345811695
2,4, 1, 4, 0, 7,45.00,60.00,Friday
1078,545223.1886465857
2,4, 1, 4, 0, 8, 0.00,15.00,Friday
1078,547474.387140132
2,4, 1, 4, 0, 8,15.00,30.00,Friday
1078,557972.0744652532
2,4, 1, 4, 0, 8,30.00,45.00,Friday
1078,558517.9174670023
2,4, 1, 4, 0, 8,45.00,60.00,Friday
1078,553207.5129959541
2,4, 1, 4, 0, 9, 0.00,15.00,Friday
1078,1019025.7595432274
2,4, 1, 4, 0, 9,15.00,30.00,Friday
1078,106152.80167097122
2,4, 1, 4, 0, 9,30.00,45.00,Friday
1078,218689.81336574632
2,4, 1, 4, 0, 9,45.00,60.00,Friday
1078,106152.80167097122
2,4, 1, 4, 0,10, 0.00,15.00,Friday
1078,5489309.387914897
2,4, 1, 4, 0,10,15.00,30.00,Friday
1078,126112.39860216288
2,4, 1, 4, 0,10,30.00,45.00,Friday
1078,106152.8016709712
2,4, 1, 4, 0,10,45.00,60.00,Friday
1078,612615.7136279042
2,4, 1, 4, 0,11, 0.00,15.00,Friday
1078,734555.0739030959
2,4, 1, 4, 0,11,15.00,30.00,Friday
1078,115897.93391431749
2,4, 1, 4, 0,11,30.00,45.00,Friday
1078,1236289.7417022525
2,4, 1, 4, 0,11,45.00,60.00,Friday
1078,1297368.0376648204
2,4, 1, 4, 0,12, 0.00,15.00,Friday
1078,846921.4169885495
2,4, 1, 4, 0,12,15.00,30.00,Friday
1078,2995973.8738011755
2,4, 1, 4, 0,12,30.00,45.00,Friday
1078,2084905.3389214603
2,4, 1, 4, 0,12,45.00,60.00,Friday
1078,4064805.3248923975
2,4, 1, 4, 0,13, 0.00,15.00,Friday
1078,3192587.964701864
2,4, 1, 4, 0,13,15.00,30.00,Friday
1078,1344132.365773566
2,4, 1, 4, 0,13,30.00,45.00,Friday
1078,666061.1702939485
2,4, 1, 4, 0,13,45.00,60.00,Friday
1078,2953132.3690912747
2,4, 1, 4, 0,14, 0.00,15.00,Friday
1078,6394118.191890944
2,4, 1, 4, 0,14,15.00,30.00,Friday
1078,566573.1721239663
2,4, 1, 4, 0,14,30.00,45.00,Friday
1078,7123348.2981591225
2,4, 1, 4, 0,14,45.00,60.00,Friday
1078,5846162.022121343
2,4, 1, 4, 0,15, 0.00,15.00,Friday
1078,3723554.5508803003
2,4, 1, 4, 0,15,15.00,30.00,Friday
1078,4977226.434978841
2,4, 1, 4, 0,15,30.00,45.00,Friday
1078,6621476.726695596
2,4, 1, 4, 0,15,45.00,60.00,Friday
1078,5040611.555566793
2,4, 1, 4, 0,16, 0.00,15.00,Friday
1078,3279800.1463624644
2,4, 1, 4, 0,16,15.00,30.00,Friday
1078,4028254.7730487264
2,4, 1, 4, 0,16,30.00,45.00,Friday
1078,6991771.620518764
2,4, 1, 4, 0,16,45.00,60.00,Friday
1078,5084109.466665066
2,4, 1, 4, 0,17, 0.00,15.00,Friday
1078,5484632.733589399
2,4, 1, 4, 0,17,15.00,30.00,Friday
1078,1897558.8729963778
2,4, 1, 4, 0,17,30.00,45.00,Friday
1078,6095177.429458361
2,4, 1, 4, 0,17,45.00,60.00,Friday
1078,4140199.5375579437
2,4, 1, 4, 0,18, 0.00,15.00,Friday
1078,5258462.031049474
2,4, 1, 4, 0,18,15.00,30.00,Friday
1078,4196351.398456202
2,4, 1, 4, 0,18,30.00,45.00,Friday
1078,3947306.9891756456
2,4, 1, 4, 0,18,45.00,60.00,Friday
1078,1928489.492044379
2,4, 1, 4, 0,19, 0.00,15.00,Friday
1078,190612.94106250117
2,4, 1, 4, 0,19,15.00,30.00,Friday
1078,262458.2173314948
2,4, 1, 4, 0,19,30.00,45.00,Friday
1078,360274.488713894
2,4, 1, 4, 0,19,45.00,60.00,Friday
1078,1022878.3764615697
2,4, 1, 4, 0,20, 0.00,15.00,Friday
1078,272944.9362249245
2,4, 1, 4, 0,20,15.00,30.00,Friday
1078,126190.9560025983
2,4, 1, 4, 0,20,30.00,45.00,Friday
1078,106152.80167097122
2,4, 1, 4, 0,20,45.00,60.00,Friday
1078,106152.80167097122
2,4, 1, 4, 0,21, 0.00,15.00,Friday
1078,2018730.8389062495
2,4, 1, 4, 0,21,15.00,30.00,Friday
1078,2242638.239501538
2,4, 1, 4, 0,21,30.00,45.00,Friday
1078,106152.80167097122
2,4, 1, 4, 0,21,45.00,60.00,Friday
1078,106152.80167097121
2,4, 1, 4, 0,22, 0.00,15.00,Friday
1078,106152.80167097122
2,4, 1, 4, 0,22,15.00,30.00,Friday
1078,6245775.929062022
2,4, 1, 4, 0,22,30.00,45.00,Friday
1078,106152.80167097122
2,4, 1, 4, 0,22,45.00,60.00,Friday
1078,106152.80167097122
2,4, 1, 4, 0,23, 0.00,15.00,Friday
1078,7482013.598117582
2,4, 1, 4, 0,23,15.00,30.00,Friday
1078,106152.80167097122
2,4, 1, 4, 0,23,30.00,45.00,Friday
1078,106152.80167097122
2,4, 1, 4, 0,23,45.00,60.00,Friday
1078,106152.80167097122
2,4, 1, 4, 0,24, 0.00,15.00,Friday
1078,106152.80167097122
2,4, 1, 4, 0,24,15.00,30.00,Friday
1078,106152.80167097122
2,4, 1, 4, 0,24,30.00,45.00,Friday
1078,106152.80167097122
2,4, 1, 4, 0,24,45.00,60.00,Friday
1078,106152.80167097122
2,5, 1, 5, 0, 1, 0.00,15.00,Saturday
1078,106152.80167097122
2,5, 1, 5, 0, 1,15.00,30.00,Saturday
1078,8709017.221432146
2,5, 1, 5, 0, 1,30.00,45.00,Saturday
1078,8709017.221432146
2,5, 1, 5, 0, 1,45.00,60.00,Saturday
1078,106152.80167097122
2,5, 1, 5, 0, 2, 0.00,15.00,Saturday
1078,106152.80167097122
2,5, 1, 5, 0, 2,15.00,30.00,Saturday
1078,3300929.9179236693
2,5, 1, 5, 0, 2,30.00,45.00,Saturday
1078,106152.80167097122
2,5, 1, 5, 0, 2,45.00,60.00,Saturday
1078,106152.80167097122
2,5, 1, 5, 0, 3, 0.00,15.00,Saturday
1078,106152.80167097122
2,5, 1, 5, 0, 3,15.00,30.00,Saturday
1078,106152.80167097122
2,5, 1, 5, 0, 3,30.00,45.00,Saturday
1078,106152.80167097122
2,5, 1, 5, 0, 3,45.00,60.00,Saturday
1078,6718294.572154758
2,5, 1, 5, 0, 4, 0.00,15.00,Saturday
1078,106152.80167097122
2,5, 1, 5, 0, 4,15.00,30.00,Saturday
1078,8709017.221432146
2,5, 1, 5, 0, 4,30.00,45.00,Saturday
1078,106152.80167097122
2,5, 1, 5, 0, 4,45.00,60.00,Saturday
1078,1682080.107580793
2,5, 1, 5, 0, 5, 0.00,15.00,Saturday
1078,106152.80167097122
2,5, 1, 5, 0, 5,15.00,30.00,Saturday
1078,106152.80167097122
2,5, 1, 5, 0, 5,30.00,45.00,Saturday
1078,106152.80167097122
2,5, 1, 5, 0, 5,45.00,60.00,Saturday
1078,8709017.221432146
2,5, 1, 5, 0, 6, 0.00,15.00,Saturday
1078,1634938.3751486344
2,5, 1, 5, 0, 6,15.00,30.00,Saturday
1078,106152.80167097121
2,5, 1, 5, 0, 6,30.00,45.00,Saturday
1078,5506214.7179330895
2,5, 1, 5, 0, 6,45.00,60.00,Saturday
1078,1819213.2858068396
2,5, 1, 5, 0, 7, 0.00,15.00,Saturday
1078,106152.80167097121
2,5, 1, 5, 0, 7,15.00,30.00,Saturday
1078,8709017.221432146
2,5, 1, 5, 0, 7,30.00,45.00,Saturday
1078,106152.80167097122
2,5, 1, 5, 0, 7,45.00,60.00,Saturday
1078,106152.80167097122
2,5, 1, 5, 0, 8, 0.00,15.00,Saturday
1078,106152.80167097122
2,5, 1, 5, 0, 8,15.00,30.00,Saturday
1078,8709017.221432146
2,5, 1, 5, 0, 8,30.00,45.00,Saturday
1078,106152.80167097121
2,5, 1, 5, 0, 8,45.00,60.00,Saturday
1078,106152.80167097122
2,5, 1, 5, 0, 9, 0.00,15.00,Saturday
1078,106152.80167097122
2,5, 1, 5, 0, 9,15.00,30.00,Saturday
1078,106152.80167097122
2,5, 1, 5, 0, 9,30.00,45.00,Saturday
1078,207002.59767442817
2,5, 1, 5, 0, 9,45.00,60.00,Saturday
1078,7614554.132434477
2,5, 1, 5, 0,10, 0.00,15.00,Saturday
1078,417360.50799792714
2,5, 1, 5, 0,10,15.00,30.00,Saturday
1078,7257074.956081039
2,5, 1, 5, 0,10,30.00,45.00,Saturday
1078,6706079.165447329
2,5, 1, 5, 0,10,45.00,60.00,Saturday
1078,106152.80167097121
2,5, 1, 5, 0,11, 0.00,15.00,Saturday
1078,645507.8164781743
2,5, 1, 5, 0,11,15.00,30.00,Saturday
1078,714253.2832809408
2,5, 1, 5, 0,11,30.00,45.00,Saturday
1078,779575.0779309213
2,5, 1, 5, 0,11,45.00,60.00,Saturday
1078,841393.8724707752
2,5, 1, 5, 0,12, 0.00,15.00,Saturday
1078,1107486.631619078
2,5, 1, 5, 0,12,15.00,30.00,Saturday
1078,454369.71849582583
2,5, 1, 5, 0,12,30.00,45.00,Saturday
1078,2201228.706835474
2,5, 1, 5, 0,12,45.00,60.00,Saturday
1078,439372.4631887724
2,5, 1, 5, 0,13, 0.00,15.00,Saturday
1078,1612171.4716303363
2,5, 1, 5, 0,13,15.00,30.00,Saturday
1078,669819.3184609014
2,5, 1, 5, 0,13,30.00,45.00,Saturday
1078,585361.6375397674
2,5, 1, 5, 0,13,45.00,60.00,Saturday
1078,514290.8898373577
2,5, 1, 5, 0,14, 0.00,15.00,Saturday
1078,3518381.0644128243
2,5, 1, 5, 0,14,15.00,30.00,Saturday
1078,2200678.770209673
2,5, 1, 5, 0,14,30.00,45.00,Saturday
1078,2060102.4258614182
2,5, 1, 5, 0,14,45.00,60.00,Saturday
1078,2072751.1886040603
2,5, 1, 5, 0,15, 0.00,15.00,Saturday
1078,3321384.7741588834
2,5, 1, 5, 0,15,15.00,30.00,Saturday
1078,589513.2896175667
2,5, 1, 5, 0,15,30.00,45.00,Saturday
1078,1994340.8234543446
2,5, 1, 5, 0,15,45.00,60.00,Saturday
1078,837871.0593774044
2,5, 1, 5, 0,16, 0.00,15.00,Saturday
1078,2707189.720061988
2,5, 1, 5, 0,16,15.00,30.00,Saturday
1078,1347620.7854981294
2,5, 1, 5, 0,16,30.00,45.00,Saturday
1078,2492237.151101951
2,5, 1, 5, 0,16,45.00,60.00,Saturday
1078,2895685.7336423127
2,5, 1, 5, 0,17, 0.00,15.00,Saturday
1078,1070482.7180800175
2,5, 1, 5, 0,17,15.00,30.00,Saturday
1078,3219363.1147795045
2,5, 1, 5, 0,17,30.00,45.00,Saturday
1078,2845256.203374295
2,5, 1, 5, 0,17,45.00,60.00,Saturday
1078,2163784.390510322
2,5, 1, 5, 0,18, 0.00,15.00,Saturday
1078,698380.2071528517
2,5, 1, 5, 0,18,15.00,30.00,Saturday
1078,2611618.724946546
2,5, 1, 5, 0,18,30.00,45.00,Saturday
1078,1673084.5136827033
2,5, 1, 5, 0,18,45.00,60.00,Saturday
1078,1321195.304869532
2,5, 1, 5, 0,19, 0.00,15.00,Saturday
1078,190374.55266912875
2,5, 1, 5, 0,19,15.00,30.00,Saturday
1078,136400.02435311192
2,5, 1, 5, 0,19,30.00,45.00,Saturday
1078,118347.48601249032
2,5, 1, 5, 0,19,45.00,60.00,Saturday
1078,106152.80167097122
2,5, 1, 5, 0,20, 0.00,15.00,Saturday
1078,106152.80167097122
2,5, 1, 5, 0,20,15.00,30.00,Saturday
1078,106152.80167097122
2,5, 1, 5, 0,20,30.00,45.00,Saturday
1078,106152.80167097122
2,5, 1, 5, 0,20,45.00,60.00,Saturday
1078,106152.80167097122
2,5, 1, 5, 0,21, 0.00,15.00,Saturday
1078,106152.80167097122
2,5, 1, 5, 0,21,15.00,30.00,Saturday
1078,106152.80167097122
2,5, 1, 5, 0,21,30.00,45.00,Saturday
1078,106152.80167097122
2,5, 1, 5, 0,21,45.00,60.00,Saturday
1078,106152.80167097122
2,5, 1, 5, 0,22, 0.00,15.00,Saturday
1078,106152.80167097122
2,5, 1, 5, 0,22,15.00,30.00,Saturday
1078,106152.80167097122
2,5, 1, 5, 0,22,30.00,45.00,Saturday
1078,106152.80167097122
2,5, 1, 5, 0,22,45.00,60.00,Saturday
1078,106152.80167097122
2,5, 1, 5, 0,23, 0.00,15.00,Saturday
1078,106152.80167097122
2,5, 1, 5, 0,23,15.00,30.00,Saturday
1078,106152.80167097122
2,5, 1, 5, 0,23,30.00,45.00,Saturday
1078,106152.80167097122
2,5, 1, 5, 0,23,45.00,60.00,Saturday
1078,106152.80167097122
2,5, 1, 5, 0,24, 0.00,15.00,Saturday
1078,1016939.239122183
2,5, 1, 5, 0,24,15.00,30.00,Saturday
1078,106152.80167097122
2,5, 1, 5, 0,24,30.00,45.00,Saturday
1078,106152.80167097122
2,5, 1, 5, 0,24,45.00,60.00,Saturday
1078,106152.80167097122
2,6, 1, 6, 0, 1, 0.00,15.00,Sunday
1078,3366658.61869604
2,6, 1, 6, 0, 1,15.00,30.00,Sunday
1078,106152.80167097122
2,6, 1, 6, 0, 1,30.00,45.00,Sunday
1078,106152.80167097122
2,6, 1, 6, 0, 1,45.00,60.00,Sunday
1078,106152.80167097122
2,6, 1, 6, 0, 2, 0.00,15.00,Sunday
1078,8709017.221432146
2,6, 1, 6, 0, 2,15.00,30.00,Sunday
1078,106152.80167097122
2,6, 1, 6, 0, 2,30.00,45.00,Sunday
1078,106152.80167097122