Program Version,EnergyPlus, Version 25.1.0-68a4a7c774, YMD=2026.04.16 20:28
1,5,Environment Title[],Latitude[deg],Longitude[deg],Time Zone[],Elevation[m]
2,8,Day of Simulation[],Month[],Day of Month[],DST Indicator[1=yes 0=no],Hour[],StartMinute[],EndMinute[],DayType
3,5,Cumulative Day of Simulation[],Month[],Day of Month[],DST Indicator[1=yes 0=no],DayType  ! When Daily Report Variables Requested
4,2,Cumulative Days of Simulation[],Month[]  ! When Monthly Report Variables Requested
5,1,Cumulative Days of Simulation[] ! When Run Period Report Variables Requested
6,1,Calendar Year of Simulation[] ! When Annual Report Variables Requested
7,1,Environment,Site Outdoor Air Drybulb Temperature [C] !TimeStep
8,1,Environment,Site Outdoor Air Relative Humidity [%] !TimeStep
9,1,Environment,Site Wind Speed [m/s] !TimeStep
10,1,Environment,Site Wind Direction [deg] !TimeStep
11,1,Environment,Site Diffuse Solar Radiation Rate per Area [W/m2] !TimeStep
12,1,Environment,Site Direct Solar Radiation Rate per Area [W/m2] !TimeStep
13,1,SPACE5-1,Zone People Occupant Count [] !TimeStep
838,1,SPACE5-1,Zone Air Temperature [C] !TimeStep
839,1,SPACE5-1,Zone Air Relative Humidity [%] !TimeStep
902,1,SPACE5-1,Zone Thermostat Heating Setpoint Temperature [C] !TimeStep
903,1,SPACE5-1,Zone Thermostat Cooling Setpoint Temperature [C] !TimeStep
1051,1,Whole Building,Facility Total HVAC Electricity Demand Rate [W] !TimeStep
1313,1,Site,Environmental Impact Total CO2 Emissions Carbon Equivalent Mass [kg] !TimeStep
1078,1,Electricity:HVAC [J] !TimeStep
End of Data Dictionary
1,RUNPERIOD 1,  32.17,-110.88,  -7.00, 809.00
2,1, 1, 1, 0, 1, 0.00,15.00,Tuesday
7,4.4
8,65.0
9,3.875
10,145.0
11,0.0
12,0.0
13,0.0
838,19.952078551521716
839,28.21567034315664
902,12.8
903,40.0
1051,117.94755741219025
1313,0.0
1078,106152.80167097122
2,1, 1, 1, 0, 1,15.00,30.00,Tuesday
7,4.8
8,61.0
9,4.65
10,160.0
11,0.0
12,0.0
13,0.0
838,19.810963307962222
839,28.269684017603552
902,16.50809669494629
903,23.25
1051,117.94755741219025
1313,0.0
1078,106152.80167097122
2,1, 1, 1, 0, 1,30.00,45.00,Tuesday
7,5.199999999999999
8,57.0
9,5.425000000000001
10,175.0
11,0.0
12,0.0
13,0.0
838,20.285610934165014
839,27.30706094541655
902,22.0
903,23.25
1051,9676.685801591275
1313,0.0
1078,8709017.221432146
2,1, 1, 1, 0, 1,45.00,60.00,Tuesday
7,5.6
8,53.0
9,6.2
10,190.0
11,0.0
12,0.0
13,0.0
838,20.61299820313666
839,26.595089120610762
902,20.84670639038086
903,23.25
1051,8760.331837669291
1313,0.0
1078,7884298.653902362
2,1, 1, 1, 0, 2, 0.00,15.00,Tuesday
7,5.35
8,54.25
9,6.050000000000001
10,192.5
11,0.0
12,0.0
13,0.0
838,20.81846861709279
839,26.12877853574436
902,22.0
903,23.25
1051,9676.685801591273
1313,0.0
1078,8709017.221432146
2,1, 1, 1, 0, 2,15.00,30.00,Tuesday
7,5.1
8,55.5
9,5.9
10,195.0
11,0.0
12,0.0
13,0.0
838,20.971294818608477
839,25.75308488994276
902,22.0
903,24.146194458007813
1051,9490.677457753598
1313,0.0
1078,8541609.711978236
2,1, 1, 1, 0, 2,30.00,45.00,Tuesday
7,4.85
8,56.75
9,5.749999999999999
10,197.5
11,0.0
12,0.0
13,0.0
838,20.4938040489518
839,26.41301657124203
902,16.693618774414063
903,23.25
1051,117.94755741219026
1313,0.0
1078,106152.80167097122
2,1, 1, 1, 0, 2,45.00,60.00,Tuesday
7,4.6
8,58.0
9,5.6
10,200.0
11,0.0
12,0.0
13,0.0
838,20.708337122828965
839,25.95228103323879
902,22.0
903,23.867382049560547
1051,9676.685801591273
1313,0.0
1078,8709017.221432146
2,1, 1, 1, 0, 3, 0.00,15.00,Tuesday
7,4.375
8,59.5
9,5.199999999999999
10,187.5
11,0.0
12,0.0
13,0.0
838,20.965563333963146
839,25.458475281996385
902,22.0
903,23.25
1051,9411.524089270226
1313,0.0
1078,8470371.680343203
2,1, 1, 1, 0, 3,15.00,30.00,Tuesday
7,4.15
8,61.0
9,4.8
10,175.0
11,0.0
12,0.0
13,0.0
838,20.548568105447384
839,26.048724552838564
902,15.714729309082031
903,23.362648010253906
1051,117.94755741219026
1313,0.0
1078,106152.80167097122
2,1, 1, 1, 0, 3,30.00,45.00,Tuesday
7,3.9250000000000003
8,62.5
9,4.4
10,162.5
11,0.0
12,0.0
13,0.0
838,20.74237383264481
839,25.629951603168813
902,22.0
903,23.753400802612305
1051,9783.017989038159
1313,0.0
1078,8804716.19013434
2,1, 1, 1, 0, 3,45.00,60.00,Tuesday
7,3.7
8,64.0
9,4.0
10,150.0
11,0.0
12,0.0
13,0.0
838,20.958408075313088
839,25.194504176910247
902,22.0
903,23.25
1051,9348.951029250155
1313,0.0
1078,8414055.92632514
2,1, 1, 1, 0, 4, 0.00,15.00,Tuesday
7,3.325
8,65.5
9,3.75
10,147.5
11,0.0
12,0.0
13,0.0
838,20.96718878987163
839,25.01722472833344
902,20.96722412109375
903,23.25
1051,4294.787932105
1313,0.0
1078,3865309.1388944997
2,1, 1, 1, 0, 4,15.00,30.00,Tuesday
7,2.95
8,67.0
9,3.5
10,145.0
11,0.0
12,0.0
13,0.0
838,21.099219537475005
839,24.700419905052442
902,22.0
903,23.25
1051,9757.232531336827
1313,0.0
1078,8781509.278203143
2,1, 1, 1, 0, 4,30.00,45.00,Tuesday
7,2.575
8,68.5
9,3.25
10,142.5
11,0.0
12,0.0
13,0.0
838,21.2327905793773
839,24.36023822873245
902,22.0
903,23.25
1051,8211.469621796849
1313,0.0
1078,7390322.659617163
2,1, 1, 1, 0, 4,45.00,60.00,Tuesday
7,2.2
8,70.0
9,3.0
10,140.0
11,0.0
12,0.0
13,0.0
838,20.713590277437746
839,25.066122467328046
902,19.725833892822266
903,23.25
1051,214.7199468396444
1313,0.0
1078,193247.95215567996
2,1, 1, 1, 0, 5, 0.00,15.00,Tuesday
7,1.9500000000000002
8,71.0
9,2.975
10,157.5
11,0.0
12,0.0
13,0.0
838,20.880760522745373
839,24.722548312497537
902,22.0
903,23.25
1051,9776.153631256704
1313,0.0
1078,8798538.268131033
2,1, 1, 1, 0, 5,15.00,30.00,Tuesday
7,1.7000000000000002
8,72.0
9,2.95
10,175.0
11,0.0
12,0.0
13,0.0
838,21.076357623331976
839,24.353456286935856
902,22.0
903,23.25
1051,9371.489379647857
1313,0.0
1078,8434340.441683073
2,1, 1, 1, 0, 5,30.00,45.00,Tuesday
7,1.45
8,73.0
9,2.925
10,192.5
11,0.0
12,0.0
13,0.0
838,21.219204794651784
839,24.045342706657102
902,22.0
903,24.178680419921875
1051,8425.953757463576
1313,0.0
1078,7583358.381717218
2,1, 1, 1, 0, 5,45.00,60.00,Tuesday
7,1.2
8,74.0
9,2.9
10,210.0
11,0.0
12,0.0
13,0.0
838,21.29403908872442
839,23.829511341599684
902,22.0
903,27.0
1051,8628.04319745479
1313,0.0
1078,7765238.877709311
2,1, 1, 1, 0, 6, 0.00,15.00,Tuesday
7,1.0999999999999999
8,75.0
9,2.775
10,210.0
11,0.0
12,0.0
13,0.0
838,21.344970727379593
839,23.65113307761936
902,22.0
903,24.728544235229492
1051,8479.447761288287
1313,0.0
1078,7631502.985159459
2,1, 1, 1, 0, 6,15.00,30.00,Tuesday
7,1.0
8,76.0
9,2.65
10,210.0
11,0.0
12,0.0
13,0.0
838,20.794935288910033
839,24.400591372670675
902,19.986072540283203
903,23.25
1051,615.1881655890352
1313,0.0
1078,553669.3490301316
2,1, 1, 1, 0, 6,30.00,45.00,Tuesday
7,0.9000000000000001
8,77.0
9,2.525
10,210.0
11,0.0
12,0.0
13,0.0
838,20.944326142712764
839,24.11220751592425
902,22.0
903,23.25
1051,9965.184279738556
1313,0.0
1078,8968665.851764701
2,1, 1, 1, 0, 6,45.00,60.00,Tuesday
7,0.8
8,78.0
9,2.4
10,210.0
11,0.0
12,0.0
13,0.0
838,21.12537647648451
839,23.793011075289648
902,22.0
903,25.411331176757813
1051,9560.207792244495
1313,0.0
1078,8604187.013020046
2,1, 1, 1, 0, 7, 0.00,15.00,Tuesday
7,0.9750000000000001
8,76.75
9,2.5
10,197.5
11,0.0
12,0.0
13,0.0
838,21.308635035744892
839,23.44113916182397
902,22.0
903,23.25
1051,9194.585477263166
1313,0.0
1078,8275126.92953685
2,1, 1, 1, 0, 7,15.00,30.00,Tuesday
7,1.15
8,75.5
9,2.5999999999999996
10,185.0
11,0.0
12,0.0
13,0.0
838,21.41836923600461
839,23.179024127436644
902,22.0
903,26.302719116210938
1051,9264.936866783435
1313,0.0
1078,8338443.180105091
2,1, 1, 1, 0, 7,30.00,45.00,Tuesday
7,1.325
8,74.25
9,2.6999999999999997
10,172.5
11,0.0
12,0.0
13,0.0
838,21.4833799101146
839,22.977520859634275
902,22.0
903,23.301504135131836
1051,9050.901183116668
1313,0.0
1078,8145811.064805002
2,1, 1, 1, 0, 7,45.00,60.00,Tuesday
7,1.5
8,73.0
9,2.8
10,160.0
11,0.0
12,0.0
13,0.0
838,21.53201160916615
839,22.801565736117073
902,22.0
903,23.59014892578125
1051,8891.07779851919
1313,0.0
1078,8001970.018667272
2,1, 1, 1, 0, 8, 0.00,15.00,Tuesday
7,1.25
8,73.0
9,2.925
10,167.5
11,0.0
12,0.0
13,0.0
838,21.571435145824054
839,22.635677465645053
902,22.0
903,23.46458625793457
1051,8947.200191046184
1313,0.0
1078,8052480.171941565
2,1, 1, 1, 0, 8,15.00,30.00,Tuesday
7,1.0
8,73.0
9,3.05
10,175.0
11,1.0
12,133.0
13,0.0
838,21.602984851097524
839,22.47351523212961
902,21.972238540649414
903,26.94693374633789
1051,8556.00725722587
1313,0.0
1078,7700406.531503283
2,1, 1, 1, 0, 8,30.00,45.00,Tuesday
7,0.75
8,73.0
9,3.175
10,182.5
11,9.25
12,242.5
13,0.0
838,21.023722921589663
839,23.20104486116631
902,19.422317504882813
903,24.461917877197266
1051,1112.5681933933663
1313,0.0
1078,1001311.3740540297
2,1, 1, 1, 0, 8,45.00,60.00,Tuesday
7,0.5
8,73.0
9,3.3
10,190.0
11,17.5
12,352.0
13,0.0
838,21.342471197374927
839,22.658655533474274
902,21.540157318115234
903,23.670846939086914
1051,8919.323285933307
1313,0.0
1078,8027390.957339978
2,1, 1, 1, 0, 9, 0.00,15.00,Tuesday
7,1.8
8,67.75
9,3.3
10,217.5
11,25.75
12,461.5
13,20.0
838,22.262720540354678
839,22.6773004042864
902,22.0
903,23.25
1051,4532.333344470992
1313,0.0
1078,4079100.010023893
2,1, 1, 1, 0, 9,15.00,30.00,Tuesday
7,3.1
8,62.5
9,3.3
10,245.0
11,34.0
12,571.0
13,20.0
838,22.804854323093124
839,24.51861016946674
902,22.0
903,23.25
1051,1820.1793861034662
1313,0.0
1078,1638161.44749312
2,1, 1, 1, 0, 9,30.00,45.00,Tuesday
7,4.4
8,57.25
9,3.3
10,272.5
11,41.5
12,605.75
13,20.0
838,23.24005633755807
839,25.75389814174168
902,22.0
903,24.007165908813477
1051,787.7889680232734
1313,0.0
1078,709010.0712209459
2,1, 1, 1, 0, 9,45.00,60.00,Tuesday
7,5.7
8,52.0
9,3.3
10,300.0
11,49.0
12,640.5
13,20.0
838,23.24917480535407
839,27.608067271733546
902,22.0
903,23.25
1051,464.01278616016566
1313,0.0
1078,417611.50754414906
2,1, 1, 1, 0,10, 0.00,15.00,Tuesday
7,6.0
8,50.75
9,3.6499999999999995
10,295.0
11,56.5
12,675.25
13,20.0
838,23.248858929428415
839,28.296175242460258
902,20.801830291748047
903,23.25
1051,127.53697025061244
1313,0.0
1078,114783.2732255512
2,1, 1, 1, 0,10,15.00,30.00,Tuesday
7,6.300000000000001
8,49.5
9,4.0
10,290.0
11,64.0
12,710.0
13,20.0
838,23.248676643480696
839,28.147808502350696
902,22.0
903,23.25
1051,132.5170464808342
1313,0.0
1078,119265.34183275077
2,1, 1, 1, 0,10,30.00,45.00,Tuesday
7,6.6000000000000005
8,48.25
9,4.3500000000000005
10,285.0
11,76.25
12,707.75
13,20.0
838,23.248878249317045
839,27.869551206739832
902,22.0
903,23.25
1051,146.81298029633456
1313,0.0
1078,132131.68226670113
2,1, 1, 1, 0,10,45.00,60.00,Tuesday
7,6.9
8,47.0
9,4.7
10,280.0
11,88.5
12,705.5
13,20.0
838,23.248855422887704
839,27.491266847715725
902,22.0
903,23.25
1051,188.28640166746766
1313,0.0
1078,169457.76150072092
2,1, 1, 1, 0,11, 0.00,15.00,Tuesday
7,7.65
8,46.25
9,5.1000000000000005
10,240.0
11,100.75
12,703.25
13,20.0
838,23.803940443056796
839,26.930145339732153
902,18.14936065673828
903,23.81334114074707
1051,140.85003357657618
1313,0.0
1078,126765.03021891857
2,1, 1, 1, 0,11,15.00,30.00,Tuesday
7,8.4
8,45.5
9,5.5
10,200.0
11,113.0
12,701.0
13,20.0
838,23.28071232825835
839,27.371582471872383
902,17.568912506103516
903,23.25
1051,306.96138402929967
1313,0.0
1078,276265.2456263697
2,1, 1, 1, 0,11,30.00,45.00,Tuesday
7,9.15
8,44.75
9,5.8999999999999995
10,160.0
11,112.25
12,748.75
13,20.0
838,23.24885213378841
839,26.989976862542235
902,22.0
903,23.25
1051,274.36697780041254
1313,0.0
1078,246930.28002037128
2,1, 1, 1, 0,11,45.00,60.00,Tuesday
7,9.9
8,44.0
9,6.3
10,120.0
11,111.5
12,796.5
13,20.0
838,23.24824687936923
839,26.504845863074934
902,22.0
903,23.25
1051,360.3645540502599
1313,0.0
1078,324328.09864523396
2,1, 1, 1, 0,12, 0.00,15.00,Tuesday
7,10.625
8,41.5
9,6.3999999999999995
10,120.0
11,110.75
12,844.25
13,16.0
838,24.356138852458745
839,25.474507006117726
902,19.547969818115234
903,24.99769401550293
1051,117.94755741219025
1313,0.0
1078,106152.80167097122
2,1, 1, 1, 0,12,15.00,30.00,Tuesday
7,11.350000000000001
8,39.0
9,6.5
10,120.0
11,110.0
12,892.0
13,16.0
838,25.334731950239764
839,25.38951680687631
902,22.0
903,25.437259674072266
1051,117.94755741219025
1313,0.0
1078,106152.80167097122
2,1, 1, 1, 0,12,30.00,45.00,Tuesday
7,12.075000000000001
8,36.5
9,6.6000000000000005
10,120.0
11,121.5
12,846.75
13,16.0
838,23.51484789986621
839,25.699713795962158
902,22.0
903,23.25
1051,973.8355161122429
1313,0.0
1078,876451.9645010188
2,1, 1, 1, 0,12,45.00,60.00,Tuesday
7,12.8
8,34.0
9,6.7
10,120.0
11,133.0
12,801.5
13,16.0
838,24.767694806796648
839,24.400165331986457
902,20.503177642822266
903,27.0
1051,117.94755741219026
1313,0.0
1078,106152.80167097122
2,1, 1, 1, 0,13, 0.00,15.00,Tuesday
7,13.125000000000002
8,33.25
9,6.7
10,100.0
11,144.5
12,756.25
13,8.0
838,23.505193701593697
839,24.26705458086805
902,17.003494262695313
903,23.25
1051,1244.660381208685
1313,0.0
1078,1120194.3430878164
2,1, 1, 1, 0,13,15.00,30.00,Tuesday
7,13.45
8,32.5
9,6.7
10,80.0
11,156.0
12,711.0
13,8.0
838,23.421405563211444
839,22.196841453308167
902,22.0
903,23.42129135131836
1051,857.9295318550503
1313,0.0
1078,772136.5786695452
2,1, 1, 1, 0,13,30.00,45.00,Tuesday
7,13.774999999999999
8,31.75
9,6.7
10,60.0
11,135.0
12,776.25
13,8.0
838,23.256938659498488
839,21.403704511570055
902,22.0
903,23.25
1051,1089.0149579080116
1313,0.0
1078,980113.4621172104
2,1, 1, 1, 0,13,45.00,60.00,Tuesday
7,14.1
8,31.0
9,6.7
10,40.0
11,114.0
12,841.5
13,8.0
838,23.24930443946633
839,20.849834587566164
902,22.0
903,23.25
1051,933.3149910320685
1313,0.0
1078,839983.4919288617
2,1, 1, 1, 0,14, 0.00,15.00,Tuesday
7,14.125
8,30.75
9,6.15
10,17.5
11,93.0
12,906.75
13,16.0
838,24.38631931862799
839,20.186671544718816
902,22.0
903,24.606994628906254
1051,424.02749543655597
1313,0.0
1078,381624.74589290033
2,1, 1, 1, 0,14,15.00,30.00,Tuesday
7,14.149999999999999
8,30.5
9,5.6
10,355.0
11,72.0
12,972.0
13,16.0
838,25.25300583313819
839,19.980565646447985
902,22.0
903,25.359371185302734
1051,345.2620286490858
1313,0.0
1078,310735.82578417717
2,1, 1, 1, 0,14,30.00,45.00,Tuesday
7,14.174999999999999
8,30.25
9,5.05
10,332.5
11,68.0
12,973.75
13,16.0
838,24.40926398407383
839,21.08372563488783
902,22.0
903,24.377622604370117
1051,966.1328617222516
1313,0.0
1078,869519.5755500266
2,1, 1, 1, 0,14,45.00,60.00,Tuesday
7,14.2
8,30.0
9,4.5
10,310.0
11,64.0
12,975.5
13,16.0
838,23.323664305870906
839,21.751637078877728
902,19.464466094970703
903,23.25
1051,1908.6129289012347
1313,0.0
1078,1717751.636011111
2,1, 1, 1, 0,15, 0.00,15.00,Tuesday
7,14.399999999999999
8,29.75
9,4.375
10,305.0
11,60.0
12,977.25
13,20.0
838,24.735071321815955
839,20.976890983057135
902,22.0
903,25.099281311035153
1051,321.3941928388874
1313,0.0
1078,289254.7735549987
2,1, 1, 1, 0,15,15.00,30.00,Tuesday
7,14.6
8,29.5
9,4.25
10,300.0
11,56.0
12,979.0
13,20.0
838,23.414103780835774
839,22.432736514941293
902,22.0
903,23.25
1051,1908.6009955240065
1313,0.0
1078,1717740.8959716056
2,1, 1, 1, 0,15,30.00,45.00,Tuesday
7,14.8
8,29.25
9,4.125
10,295.0
11,57.0
12,967.5
13,20.0
838,23.248656100037632
839,22.463996021079378
902,22.0
903,23.25
1051,1483.1532783192213
1313,0.0
1078,1334837.9504872991
2,1, 1, 1, 0,15,45.00,60.00,Tuesday
7,15.0
8,29.0
9,4.0
10,290.0
11,58.0
12,956.0
13,20.0
838,23.248828111582455
839,22.314516224762876
902,22.0
903,23.25
1051,1806.5514869470517
1313,0.0
1078,1625896.3382523465
2,1, 1, 1, 0,16, 0.00,15.00,Tuesday
7,15.025
8,29.25
9,3.875
10,287.5
11,59.0
12,944.5
13,20.0
838,23.248954999871167
839,22.250940645036614
902,22.0
903,23.25
1051,1753.5387043540525
1313,0.0
1078,1578184.8339186471
2,1, 1, 1, 0,16,15.00,30.00,Tuesday
7,15.05
8,29.5
9,3.75
10,285.0
11,60.0
12,933.0
13,20.0
838,24.25451853038085
839,21.789826940152913
902,15.279088020324707
903,24.38662338256836
1051,1045.630197290204
1313,0.0
1078,941067.1775611835
2,1, 1, 1, 0,16,30.00,45.00,Tuesday
7,15.075
8,29.75
9,3.625
10,282.5
11,55.5
12,921.0
13,20.0
838,23.298011215763292
839,22.966344317602136
902,22.0
903,23.25
1051,1979.8121245649581
1313,0.0
1078,1781830.9121084625
2,1, 1, 1, 0,16,45.00,60.00,Tuesday
7,15.1
8,30.0
9,3.5
10,280.0
11,51.0
12,909.0
13,20.0
838,24.752940313719463
839,22.13345999289103
902,22.0
903,25.188188552856445
1051,850.8509131547977
1313,0.0
1078,765765.8218393181
2,1, 1, 1, 0,17, 0.00,15.00,Tuesday
7,15.0
8,30.0
9,3.475
10,280.0
11,46.5
12,897.0
13,20.0
838,23.408553503486544
839,23.63231598446778
902,22.0
903,23.25
1051,2026.0824269682516
1313,0.0
1078,1823474.1842714264
2,1, 1, 1, 0,17,15.00,30.00,Tuesday
7,14.899999999999999
8,30.0
9,3.45
10,280.0
11,42.0
12,885.0
13,20.0
838,24.222612014609737
839,23.11097969541548
902,19.932506561279297
903,24.341775894165036
1051,1112.2850111055031
1313,0.0
1078,1001056.5099949528
2,1, 1, 1, 0,17,30.00,45.00,Tuesday
7,14.799999999999999
8,30.0
9,3.425
10,280.0
11,31.5
12,663.75
13,20.0
838,23.29388529712265
839,23.98345266343943
902,22.0
903,23.25
1051,1852.6832902871017
1313,0.0
1078,1667414.9612583918
2,1, 1, 1, 0,17,45.00,60.00,Tuesday
7,14.7
8,30.0
9,3.4
10,280.0
11,21.0
12,442.5
13,20.0
838,24.644457293209438
839,23.045310718405375
902,15.0
903,25.012136459350586
1051,812.3076404591554
1313,0.0
1078,731076.8764132397
2,1, 1, 1, 0,18, 0.00,15.00,Tuesday
7,14.174999999999999
8,31.25
9,3.15
10,280.0
11,10.5
12,221.25
13,20.0
838,23.431374257109184
839,24.45615727681959
902,22.0
903,23.25
1051,1650.6944406272137
1313,0.0
1078,1485624.9965644921
2,1, 1, 1, 0,18,15.00,30.00,Tuesday
7,13.649999999999999
8,32.5
9,2.9
10,280.0
11,0.0
12,0.0
13,20.0
838,23.262748908246458
839,23.635192287398908
902,15.0
903,23.25
1051,929.961390535854
1313,0.0
1078,836965.2514822686
2,1, 1, 1, 0,18,30.00,45.00,Tuesday
7,13.125
8,33.75
9,2.65
10,280.0
11,0.0
12,0.0
13,20.0
838,23.250674707327907
839,22.45370538760299
902,22.0
903,23.25
1051,1076.7501065740985
1313,0.0
1078,969075.0959166887
2,1, 1, 1, 0,18,45.00,60.00,Tuesday
7,12.6
8,35.0
9,2.4
10,280.0
11,0.0
12,0.0
13,20.0
838,23.249316437338376
839,22.02724428242227
902,21.31525421142578
903,23.25
1051,949.763374962413
1313,0.0
1078,854787.0374661717
2,1, 1, 1, 0,19, 0.00,15.00,Tuesday
7,12.225
8,36.5
9,2.5
10,280.0
11,0.0
12,0.0
13,10.0
838,24.045791534135425
839,21.54808959232235
902,21.05712127685547
903,24.928148269653317
1051,117.94755741219024
1313,0.0
1078,106152.80167097121
2,1, 1, 1, 0,19,15.00,30.00,Tuesday
7,11.85
8,38.0
9,2.5999999999999996
10,280.0
11,0.0
12,0.0
13,10.0
838,23.906872533552384
839,22.127909852313238
902,22.0
903,23.817522048950195
1051,170.66187004167625
1313,0.0
1078,153595.68303750863
2,1, 1, 1, 0,19,30.00,45.00,Tuesday
7,11.475
8,39.5
9,2.6999999999999997
10,280.0
11,0.0
12,0.0
13,10.0
838,23.303824539727575
839,22.785467258606538
902,22.0
903,23.25
1051,344.49831762234214
1313,0.0
1078,310048.48586010793
2,1, 1, 1, 0,19,45.00,60.00,Tuesday
7,11.1
8,41.0
9,2.8
10,280.0
11,0.0
12,0.0
13,10.0
838,23.250701337945767
839,22.999777123166197
902,19.636911392211914
903,23.25
1051,117.94755741219025
1313,0.0
1078,106152.80167097122
2,1, 1, 1, 0,20, 0.00,15.00,Tuesday
7,11.0
8,41.0
9,2.8
10,277.5
11,0.0
12,0.0
13,2.0
838,23.428919549498367
839,22.81539482483131
902,22.0
903,24.080528259277344
1051,117.94755741219025
1313,0.0
1078,106152.80167097122
2,1, 1, 1, 0,20,15.00,30.00,Tuesday
7,10.899999999999999
8,41.0
9,2.8
10,275.0
11,0.0
12,0.0
13,2.0
838,23.623545586688724
839,22.60253630161261
902,22.0
903,23.922698974609375
1051,117.94755741219025
1313,0.0
1078,106152.80167097122
2,1, 1, 1, 0,20,30.00,45.00,Tuesday
7,10.799999999999999
8,41.0
9,2.8
10,272.5
11,0.0
12,0.0
13,2.0
838,23.568031614173535
839,22.696496145704288
902,22.0
903,23.583541870117188
1051,117.94755741219025
1313,0.0
1078,106152.80167097122
2,1, 1, 1, 0,20,45.00,60.00,Tuesday
7,10.7
8,41.0
9,2.8
10,270.0
11,0.0
12,0.0
13,2.0
838,23.27099366020407
839,23.010414612775588
902,21.769609451293945
903,23.25
1051,117.94755741219025
1313,0.0
1078,106152.80167097122
2,1, 1, 1, 0,21, 0.00,15.00,Tuesday
7,10.474999999999998
8,42.0
9,2.3749999999999996
10,270.0
11,0.0
12,0.0
13,2.0
838,23.009184431933406
839,23.39282631822738
902,22.0
903,24.167421340942383
1051,1101.5416874594575
1313,0.0
1078,991387.5187135118
2,1, 1, 1, 0,21,15.00,30.00,Tuesday
7,10.25
8,43.0
9,1.95
10,270.0
11,0.0
12,0.0
13,2.0
838,22.744482999294203
839,23.85294249036668
902,20.689239501953125
903,24.522985458374023
1051,117.94755741219025
1313,0.0
1078,106152.80167097122
2,1, 1, 1, 0,21,30.00,45.00,Tuesday
7,10.025
8,44.0
9,1.525
10,270.0
11,0.0
12,0.0
13,2.0
838,22.546725269335823
839,24.229251795790095
902,22.0
903,25.759925842285156
1051,2509.0806435344675
1313,0.0
1078,2258172.5791810206
2,1, 1, 1, 0,21,45.00,60.00,Tuesday
7,9.8
8,45.0
9,1.1
10,270.0
11,0.0
12,0.0
13,2.0
838,22.374493190045392
839,24.571736488935418
902,20.02730941772461
903,23.25
1051,117.94755741219025
1313,0.0
1078,106152.80167097122
2,1, 1, 1, 0,22, 0.00,15.00,Tuesday
7,9.25
8,47.0
9,1.5
10,255.0
11,0.0
12,0.0
13,0.0
838,22.091254762918105
839,24.93196439403752
902,22.0
903,23.25
1051,3574.1349373322787
1313,0.0
1078,3216721.443599051
2,1, 1, 1, 0,22,15.00,30.00,Tuesday
7,8.7
8,49.0
9,1.9000000000000001
10,240.0
11,0.0
12,0.0
13,0.0
838,22.00046373353713
839,24.90630379086795
902,22.0
903,23.39154624938965
1051,3180.541074547977
1313,0.0
1078,2862486.9670931795
2,1, 1, 1, 0,22,30.00,45.00,Tuesday
7,8.149999999999999
8,51.0
9,2.3000000000000003
10,225.0
11,0.0
12,0.0
13,0.0
838,21.834563024781534
839,24.976222052434636
902,21.82861328125
903,23.25
1051,3169.0194916656733
1313,0.0
1078,2852117.542499106
2,1, 1, 1, 0,22,45.00,60.00,Tuesday
7,7.6
8,53.0
9,2.7
10,210.0
11,0.0
12,0.0
13,0.0
838,21.99441390212343
839,24.56853341198866
902,22.0
903,23.726436614990234
1051,5279.943283605252
1313,0.0
1078,4751948.9552447265
2,1, 1, 1, 0,23, 0.00,15.00,Tuesday
7,7.249999999999999
8,54.25
9,2.6750000000000003
10,202.5
11,0.0
12,0.0
13,0.0
838,21.999906776322415
839,24.416656355237503
902,22.0
903,23.25
1051,4437.04437226245
1313,0.0
1078,3993339.9350362057
2,1, 1, 1, 0,23,15.00,30.00,Tuesday
7,6.9
8,55.5
9,2.6500000000000004
10,195.0
11,0.0
12,0.0
13,0.0
838,22.000072913109964
839,24.288013518127567
902,22.0
903,27.0
1051,4996.088476018754
1313,0.0
1078,4496479.628416878
2,1, 1, 1, 0,23,30.00,45.00,Tuesday
7,6.550000000000001
8,56.75
9,2.625
10,187.5
11,0.0
12,0.0
13,0.0
838,22.00007498476891
839,24.16875933828854
902,22.0
903,23.25
1051,5098.849098223087
1313,0.0
1078,4588964.188400778
2,1, 1, 1, 0,23,45.00,60.00,Tuesday
7,6.2
8,58.0
9,2.6
10,180.0
11,0.0
12,0.0
13,0.0
838,22.000075431656565
839,24.055445441008793
902,22.0
903,24.905012130737305
1051,5256.518632854036
1313,0.0
1078,4730866.769568632
2,1, 1, 1, 0,24, 0.00,15.00,Tuesday
7,5.65
8,60.75
9,2.725
10,167.5
11,0.0
12,0.0
13,0.0
838,21.846416593332435
839,24.177253055546814
902,21.842187881469727
903,25.781475067138672
1051,4359.02722888309
1313,0.0
1078,3923124.5059947814
2,1, 1, 1, 0,24,15.00,30.00,Tuesday
7,5.1
8,63.5
9,2.85
10,155.0
11,0.0
12,0.0
13,0.0
838,21.506040393199804
839,24.623751751367195
902,20.040491104125977
903,24.931385040283203
1051,117.94755741219025
1313,0.0
1078,106152.80167097122
2,1, 1, 1, 0,24,30.00,45.00,Tuesday
7,4.55
8,66.25
9,2.975
10,142.5
11,0.0
12,0.0
13,0.0
838,21.842822945607544
839,24.03207193323311
902,22.0
903,24.237194061279297
1051,8437.046401707767
1313,0.0
1078,7593341.76153699
2,1, 1, 1, 0,24,45.00,60.00,Tuesday
7,4.0
8,69.0
9,3.1
10,130.0
11,0.0
12,0.0
13,0.0
838,21.495675156186145
839,24.48853806208509
902,16.966306686401367
903,25.142490386962887
1051,117.94755741219024
1313,0.0
1078,106152.80167097121
2,2, 1, 2, 0, 1, 0.00,15.00,Wednesday
7,3.75
8,70.25
9,2.85
10,127.5
11,0.0
12,0.0
13,0.0
838,21.716305658411947
839,23.970876209541597
902,22.0
903,23.25
1051,9333.780983280329
1313,0.0
1078,8400402.884952294
2,2, 1, 2, 0, 1,15.00,30.00,Wednesday
7,3.5
8,71.5
9,2.6
10,125.0
11,0.0
12,0.0
13,0.0
838,21.904421368806773
839,23.51693890764938
902,22.0
903,25.991649627685547
1051,7616.221766903647
1313,0.0
1078,6854599.590213282
2,2, 1, 2, 0, 1,30.00,45.00,Wednesday
7,3.25
8,72.75
9,2.35
10,122.5
11,0.0
12,0.0
13,0.0
838,21.995464915430933
839,23.183075178026115
902,22.0
903,24.585063934326172
1051,7265.0449599420135
1313,0.0
1078,6538540.463947812
2,2, 1, 2, 0, 1,45.00,60.00,Wednesday
7,3.0
8,74.0
9,2.1
10,120.0
11,0.0
12,0.0
13,0.0
838,21.99997602240819
839,22.97158310780564
902,22.0
903,27.0
1051,7345.501444457706
1313,0.0
1078,6610951.300011936
2,2, 1, 2, 0, 2, 0.00,15.00,Wednesday
7,3.25
8,72.75
9,2.35
10,125.0
11,0.0
12,0.0
13,0.0
838,22.000155262191765
839,22.78581763260329
902,22.0
903,23.62063217163086
1051,7217.240970897856
1313,0.0
1078,6495516.87380807
2,2, 1, 2, 0, 2,15.00,30.00,Wednesday
7,3.5
8,71.5
9,2.6
10,130.0
11,0.0
12,0.0
13,0.0
838,22.000149921210824
839,22.616170969745102
902,22.0
903,23.25
1051,7175.200433950926
1313,0.0
1078,6457680.3905558335
2,2, 1, 2, 0, 2,30.00,45.00,Wednesday
7,3.75
8,70.25
9,2.85
10,135.0
11,0.0
12,0.0
13,0.0
838,22.00014277674253
839,22.458873095805913
902,22.0
903,23.25
1051,7161.696247714188
1313,0.0
1078,6445526.622942769
2,2, 1, 2, 0, 2,45.00,60.00,Wednesday
7,4.0
8,69.0
9,3.1
10,140.0
11,0.0
12,0.0
13,0.0
838,21.99999334116054
839,22.39585460031528
902,22.0
903,23.25
1051,6744.571009198848
1313,0.0
1078,6070113.908278963
2,2, 1, 2, 0, 3, 0.00,15.00,Wednesday
7,4.0
8,67.75
9,2.45
10,137.5
11,0.0
12,0.0
13,0.0
838,22.000006819600443
839,22.37288024839763
902,22.0
903,23.25
1051,6725.560704422538
1313,0.0
1078,6053004.633980284
2,2, 1, 2, 0, 3,15.00,30.00,Wednesday
7,4.0
8,66.5
9,1.8
10,135.0
11,0.0
12,0.0
13,0.0
838,21.487775678287807
839,23.066760327036526
902,20.141908645629883
903,23.25
1051,117.94755741219026
1313,0.0
1078,106152.80167097122
2,2, 1, 2, 0, 3,30.00,45.00,Wednesday
7,4.0
8,65.25
9,1.15
10,132.5
11,0.0
12,0.0
13,0.0
838,21.82326533161259
839,22.57578122145643
902,22.0
903,23.25
1051,8996.033135909955
1313,0.0
1078,8096429.82231896
2,2, 1, 2, 0, 3,45.00,60.00,Wednesday
7,4.0
8,64.0
9,0.5
10,130.0
11,0.0
12,0.0
13,0.0
838,21.983576929859375
839,22.329933218085195
902,22.0
903,25.07133674621582
1051,7261.485743226363
1313,0.0
1078,6535337.168903728
2,2, 1, 2, 0, 4, 0.00,15.00,Wednesday
7,4.25
8,61.75
9,1.15
10,130.0
11,0.0
12,0.0
13,0.0
838,22.000039820210663
839,22.267628008287645
902,22.0
903,25.969661712646484
1051,7065.828477451156
1313,0.0
1078,6359245.62970604
2,2, 1, 2, 0, 4,15.00,30.00,Wednesday
7,4.5
8,59.5
9,1.8
10,130.0
11,0.0
12,0.0
13,0.0
838,21.436499081212652
839,23.011607778941855
902,16.503189086914063
903,23.25
1051,117.94755741219026
1313,0.0
1078,106152.80167097122
2,2, 1, 2, 0, 4,30.00,45.00,Wednesday
7,4.75
8,57.25
9,2.45
10,130.0
11,0.0
12,0.0
13,0.0
838,20.996131040989226
839,23.592323907059935
902,19.834068298339844
903,23.25
1051,922.4115274449015
1313,0.0
1078,830170.3747004113
2,2, 1, 2, 0, 4,45.00,60.00,Wednesday
7,5.0
8,55.0
9,3.1
10,130.0
11,0.0
12,0.0
13,0.0
838,21.25928723410853
839,23.16183826372119
902,22.0
903,23.35601615905762
1051,9676.685801591275
1313,0.0
1078,8709017.221432146
2,2, 1, 2, 0, 5, 0.00,15.00,Wednesday
7,4.75
8,56.0
9,2.575
10,127.5
11,0.0
12,0.0
13,0.0
838,20.90288571203169
839,23.623718564279592
902,20.492250442504883
903,23.25
1051,2095.672601841943
1313,0.0
1078,1886105.341657749
2,2, 1, 2, 0, 5,15.00,30.00,Wednesday
7,4.5
8,57.0
9,2.05
10,125.0
11,0.0
12,0.0
13,0.0
838,21.33875777568328
839,22.959616275314875
902,22.0
903,23.25
1051,9164.182345580308
1313,0.0
1078,8247764.111022278
2,2, 1, 2, 0, 5,30.00,45.00,Wednesday
7,4.25
8,58.0
9,1.525
10,122.5
11,0.0
12,0.0
13,0.0
838,21.050213046640394
839,23.302979169446036
902,16.560686111450195
903,23.25
1051,117.94755741219025
1313,0.0
1078,106152.80167097122
2,2, 1, 2, 0, 5,45.00,60.00,Wednesday
7,4.0
8,59.0
9,1.0
10,120.0
11,0.0
12,0.0
13,0.0
838,20.668826871536645
839,23.82058398808455
902,18.79409408569336
903,23.25
1051,117.94755741219026
1313,0.0
1078,106152.80167097122
2,2, 1, 2, 0, 6, 0.00,15.00,Wednesday
7,4.0
8,59.0
9,1.125
10,120.0
11,0.0
12,0.0
13,0.0
838,20.889518636823603
839,23.44804299585353
902,22.0
903,24.429946899414063
1051,9676.685801591275
1313,0.0
1078,8709017.221432146
2,2, 1, 2, 0, 6,15.00,30.00,Wednesday
7,4.0
8,59.0
9,1.25
10,120.0
11,0.0
12,0.0
13,0.0
838,20.585317877076296
839,23.855203656205436
902,15.629094123840332
903,23.292438507080078
1051,117.94755741219024
1313,0.0
1078,106152.80167097121
2,2, 1, 2, 0, 6,30.00,45.00,Wednesday
7,4.0
8,59.0
9,1.375
10,120.0
11,0.0
12,0.0
13,0.0
838,20.831237843323386
839,23.445636131453796
902,22.0
903,25.04280090332031
1051,9676.685801591273
1313,0.0
1078,8709017.221432146
2,2, 1, 2, 0, 6,45.00,60.00,Wednesday
7,4.0
8,59.0
9,1.5
10,120.0
11,0.0
12,0.0
13,0.0
838,20.58628219221719
839,23.751331805803197
902,19.67420768737793
903,23.25
1051,644.9462521659226
1313,0.0
1078,580451.6269493303
2,2, 1, 2, 0, 7, 0.00,15.00,Wednesday
7,4.5
8,57.0
9,1.65
10,117.5
11,0.0
12,0.0
13,0.0
838,20.76337058920928
839,23.412816692980947
902,22.0
903,23.25
1051,10194.027677522128
1313,0.0
1078,9174624.909769913
2,2, 1, 2, 0, 7,15.00,30.00,Wednesday
7,5.0
8,55.0
9,1.8
10,115.0
11,0.0
12,0.0
13,0.0
838,21.040187758383937
839,22.941960646877234
902,21.157146453857422
903,25.393585205078125
1051,6859.497367178213
1313,0.0
1078,6173547.630460392
2,2, 1, 2, 0, 7,30.00,45.00,Wednesday
7,5.5
8,53.0
9,1.9500000000000002
10,112.5
11,0.0
12,0.0
13,0.0
838,21.213308855238978
839,22.63359730708472
902,22.0
903,23.857797622680664
1051,9767.252505141834
1313,0.0
1078,8790527.254627647
2,2, 1, 2, 0, 7,45.00,60.00,Wednesday
7,6.0
8,51.0
9,2.1
10,110.0
11,0.0
12,0.0
13,0.0
838,20.752899714681178
839,23.22034586245716
902,20.597671508789063
903,26.244348526000977
1051,2322.8619609277453
1313,0.0
1078,2090575.7648349712
2,2, 1, 2, 0, 8, 0.00,15.00,Wednesday
7,6.0
8,51.0
9,2.35
10,115.0
11,0.0
12,0.0
13,0.0
838,20.960031169176332
839,22.85434279423874
902,22.0
903,23.25
1051,9541.668066273178
1313,0.0
1078,8587501.259645857
2,2, 1, 2, 0, 8,15.00,30.00,Wednesday
7,6.0
8,51.0
9,2.6
10,120.0
11,1.0
12,179.0
13,0.0
838,20.593042094245774
839,23.305692139918804
902,20.31204605102539
903,24.721519470214844
1051,1333.2531545347879
1313,0.0
1078,1199927.839081309
2,2, 1, 2, 0, 8,30.00,45.00,Wednesday
7,6.0
8,51.0
9,2.85
10,125.0
11,7.25
12,309.5
13,0.0
838,20.842834767672663
839,22.830439288546565
902,22.0
903,23.25
1051,8017.365694084967
1313,0.0