Program Version,EnergyPlus, Version 25.1.0-68a4a7c774, YMD=2026.04.16 09:37
1,5,Environment Title[],Latitude[deg],Longitude[deg],Time Zone[],Elevation[m]
2,8,Day of Simulation[],Month[],Day of Month[],DST Indicator[1=yes 0=no],Hour[],StartMinute[],EndMinute[],DayType
3,5,Cumulative Day of Simulation[],Month[],Day of Month[],DST Indicator[1=yes 0=no],DayType  ! When Daily Report Variables Requested
4,2,Cumulative Days of Simulation[],Month[]  ! When Monthly Report Variables Requested
5,1,Cumulative Days of Simulation[] ! When Run Period Report Variables Requested
6,1,Calendar Year of Simulation[] ! When Annual Report Variables Requested
7,1,Environment,Site Outdoor Air Drybulb Temperature [C] !TimeStep
8,1,Environment,Site Outdoor Air Relative Humidity [%] !TimeStep
9,1,Environment,Site Wind Speed [m/s] !TimeStep
10,1,Environment,Site Wind Direction [deg] !TimeStep
11,1,Environment,Site Diffuse Solar Radiation Rate per Area [W/m2] !TimeStep
12,1,Environment,Site Direct Solar Radiation Rate per Area [W/m2] !TimeStep
13,1,SPACE5-1,Zone People Occupant Count [] !TimeStep
838,1,SPACE5-1,Zone Air Temperature [C] !TimeStep
839,1,SPACE5-1,Zone Air Relative Humidity [%] !TimeStep
902,1,SPACE5-1,Zone Thermostat Heating Setpoint Temperature [C] !TimeStep
903,1,SPACE5-1,Zone Thermostat Cooling Setpoint Temperature [C] !TimeStep
1051,1,Whole Building,Facility Total HVAC Electricity Demand Rate [W] !TimeStep
1313,1,Site,Environmental Impact Total CO2 Emissions Carbon Equivalent Mass [kg] !TimeStep
1078,1,Electricity:HVAC [J] !TimeStep
End of Data Dictionary
1,RUNPERIOD 1,  32.17,-110.88,  -7.00, 809.00
2,1, 1, 1, 0, 1, 0.00,15.00,Tuesday
7,4.4
8,65.0
9,3.875
10,145.0
11,0.0
12,0.0
13,0.0
838,19.952078551521716
839,28.21567034315664
902,12.8
903,40.0
1051,117.94755741219025
1313,0.0
1078,106152.80167097122
2,1, 1, 1, 0, 1,15.00,30.00,Tuesday
7,4.8
8,61.0
9,4.65
10,160.0
11,0.0
12,0.0
13,0.0
838,19.817648260719352
839,28.293175304668257
902,18.585742950439453
903,23.25
1051,2408.7475344244394
1313,0.0
1078,2167872.7809819956
2,1, 1, 1, 0, 1,30.00,45.00,Tuesday
7,5.199999999999999
8,57.0
9,5.425000000000001
10,175.0
11,0.0
12,0.0
13,0.0
838,19.672187495969144
839,28.348300520361665
902,16.04812240600586
903,23.25
1051,117.94755741219025
1313,0.0
1078,106152.80167097122
2,1, 1, 1, 0, 1,45.00,60.00,Tuesday
7,5.6
8,53.0
9,6.2
10,190.0
11,0.0
12,0.0
13,0.0
838,19.553773227649895
839,28.36069213957068
902,17.77930450439453
903,23.25
1051,117.94755741219025
1313,0.0
1078,106152.80167097122
2,1, 1, 1, 0, 2, 0.00,15.00,Tuesday
7,5.35
8,54.25
9,6.050000000000001
10,192.5
11,0.0
12,0.0
13,0.0
838,19.43774874388058
839,28.375673467507763
902,13.1923828125
903,24.53086280822754
1051,117.94755741219025
1313,0.0
1078,106152.80167097122
2,1, 1, 1, 0, 2,15.00,30.00,Tuesday
7,5.1
8,55.5
9,5.9
10,195.0
11,0.0
12,0.0
13,0.0
838,19.33582950998842
839,28.36708757954247
902,12.0
903,24.151716232299805
1051,117.94755741219025
1313,0.0
1078,106152.80167097122
2,1, 1, 1, 0, 2,30.00,45.00,Tuesday
7,4.85
8,56.75
9,5.749999999999999
10,197.5
11,0.0
12,0.0
13,0.0
838,19.24157343049311
839,28.36357200029059
902,12.0
903,30.0
1051,117.94755741219025
1313,0.0
1078,106152.80167097122
2,1, 1, 1, 0, 2,45.00,60.00,Tuesday
7,4.6
8,58.0
9,5.6
10,200.0
11,0.0
12,0.0
13,0.0
838,19.15938621329681
839,28.36077530152215
902,12.308890342712402
903,27.771377563476563
1051,117.94755741219025
1313,0.0
1078,106152.80167097122
2,1, 1, 1, 0, 3, 0.00,15.00,Tuesday
7,4.375
8,59.5
9,5.199999999999999
10,187.5
11,0.0
12,0.0
13,0.0
838,19.073710024149747
839,28.394943576004895
902,12.0
903,26.287586212158203
1051,117.94755741219025
1313,0.0
1078,106152.80167097122
2,1, 1, 1, 0, 3,15.00,30.00,Tuesday
7,4.15
8,61.0
9,4.8
10,175.0
11,0.0
12,0.0
13,0.0
838,18.995491332472543
839,28.43698548977372
902,12.820677757263184
903,27.916351318359375
1051,117.94755741219025
1313,0.0
1078,106152.80167097122
2,1, 1, 1, 0, 3,30.00,45.00,Tuesday
7,3.9250000000000003
8,62.5
9,4.4
10,162.5
11,0.0
12,0.0
13,0.0
838,18.906130147577006
839,28.505576920132984
902,17.35724449157715
903,23.25
1051,1502.6243317849323
1313,0.0
1078,1352361.8986064391
2,1, 1, 1, 0, 3,45.00,60.00,Tuesday
7,3.7
8,64.0
9,4.0
10,150.0
11,0.0
12,0.0
13,0.0
838,18.831500959961232
839,28.59773408487535
902,18.459470748901367
903,23.25
1051,6026.32146750005
1313,0.0
1078,5423689.320750046
2,1, 1, 1, 0, 4, 0.00,15.00,Tuesday
7,3.325
8,65.5
9,3.75
10,147.5
11,0.0
12,0.0
13,0.0
838,19.246678874033147
839,27.83155447212419
902,19.64999771118164
903,23.643571853637695
1051,8974.002742941106
1313,0.0
1078,8076602.468646995
2,1, 1, 1, 0, 4,15.00,30.00,Tuesday
7,2.95
8,67.0
9,3.5
10,145.0
11,0.0
12,0.0
13,0.0
838,19.046819517764153
839,28.141751518132047
902,12.0
903,25.274059295654297
1051,126.94265030343179
1313,0.0
1078,114248.38527308861
2,1, 1, 1, 0, 4,30.00,45.00,Tuesday
7,2.575
8,68.5
9,3.25
10,142.5
11,0.0
12,0.0
13,0.0
838,18.902247330413864
839,28.366436151606823
902,12.0
903,23.25
1051,117.94755741219025
1313,0.0
1078,106152.80167097122
2,1, 1, 1, 0, 4,45.00,60.00,Tuesday
7,2.2
8,70.0
9,3.0
10,140.0
11,0.0
12,0.0
13,0.0
838,18.801342649415748
839,28.51440465688004
902,12.0
903,26.42564582824707
1051,145.01906105448322
1313,0.0
1078,130517.1549490349
2,1, 1, 1, 0, 5, 0.00,15.00,Tuesday
7,1.9500000000000002
8,71.0
9,2.975
10,157.5
11,0.0
12,0.0
13,0.0
838,18.72899894467403
839,28.60315401327035
902,12.0
903,23.25
1051,195.34628311031767
1313,0.0
1078,175811.6547992859
2,1, 1, 1, 0, 5,15.00,30.00,Tuesday
7,1.7000000000000002
8,72.0
9,2.95
10,175.0
11,0.0
12,0.0
13,0.0
838,18.667270302370536
839,28.669360090801916
902,12.0
903,23.25
1051,278.0534914437749
1313,0.0
1078,250248.14229939738
2,1, 1, 1, 0, 5,30.00,45.00,Tuesday
7,1.45
8,73.0
9,2.925
10,192.5
11,0.0
12,0.0
13,0.0
838,18.602540400128174
839,28.7411160817581
902,17.092119216918945
903,24.739887237548828
1051,1787.7976804505493
1313,0.0
1078,1609017.9124054944
2,1, 1, 1, 0, 5,45.00,60.00,Tuesday
7,1.2
8,74.0
9,2.9
10,210.0
11,0.0
12,0.0
13,0.0
838,19.022283903211978
839,27.970176921643297
902,23.25
903,25.980188369750977
1051,10022.836994284185
1313,0.0
1078,9020553.294855764
2,1, 1, 1, 0, 6, 0.00,15.00,Tuesday
7,1.0999999999999999
8,75.0
9,2.775
10,210.0
11,0.0
12,0.0
13,0.0
838,18.824445542184897
839,28.28867674687202
902,12.0
903,23.25
1051,485.0738354292847
1313,0.0
1078,436566.4518863562
2,1, 1, 1, 0, 6,15.00,30.00,Tuesday
7,1.0
8,76.0
9,2.65
10,210.0
11,0.0
12,0.0
13,0.0
838,18.668926636559064
839,28.539997117173616
902,12.0
903,23.25
1051,528.9037810521071
1313,0.0
1078,476013.40294689644
2,1, 1, 1, 0, 6,30.00,45.00,Tuesday
7,0.9000000000000001
8,77.0
9,2.525
10,210.0
11,0.0
12,0.0
13,0.0
838,18.549843802944608
839,28.729023481939038
902,13.747398376464844
903,24.02031898498535
1051,580.3657764778543
1313,0.0
1078,522329.1988300688
2,1, 1, 1, 0, 6,45.00,60.00,Tuesday
7,0.8
8,78.0
9,2.4
10,210.0
11,0.0
12,0.0
13,0.0
838,18.462020649837946
839,28.858620053221152
902,16.421499252319336
903,23.25
1051,628.713625246327
1313,0.0
1078,565842.2627216943
2,1, 1, 1, 0, 7, 0.00,15.00,Tuesday
7,0.9750000000000001
8,76.75
9,2.5
10,197.5
11,0.0
12,0.0
13,0.0
838,18.39946493857613
839,28.87575750192248
902,16.900177001953125
903,26.746936798095703
1051,3275.8293055315216
1313,0.0
1078,2948246.37497837
2,1, 1, 1, 0, 7,15.00,30.00,Tuesday
7,1.15
8,75.5
9,2.5999999999999996
10,185.0
11,0.0
12,0.0
13,0.0
838,18.331547156716205
839,28.851683851660592
902,16.03327178955078
903,23.730876922607422
1051,1354.2135346515956
1313,0.0
1078,1218792.181186436
2,1, 1, 1, 0, 7,30.00,45.00,Tuesday
7,1.325
8,74.25
9,2.6999999999999997
10,172.5
11,0.0
12,0.0
13,0.0
838,18.268543705896064
839,28.803857388857708
902,14.821151733398438
903,23.25
1051,1325.0636223871943
1313,0.0
1078,1192557.260148475
2,1, 1, 1, 0, 7,45.00,60.00,Tuesday
7,1.5
8,73.0
9,2.8
10,160.0
11,0.0
12,0.0
13,0.0
838,18.208927597957953
839,28.752744189370897
902,12.792539596557617
903,27.882991790771484
1051,1298.7152167552415
1313,0.0
1078,1168843.6950797173
2,1, 1, 1, 0, 8, 0.00,15.00,Tuesday
7,1.25
8,73.0
9,2.925
10,167.5
11,0.0
12,0.0
13,0.0
838,18.641374720136774
839,27.884234099330097
902,23.25
903,24.782196044921875
1051,10950.94512748456
1313,0.0
1078,9855850.614736103
2,1, 1, 1, 0, 8,15.00,30.00,Tuesday
7,1.0
8,73.0
9,3.05
10,175.0
11,1.0
12,133.0
13,0.0
838,18.443822562981545
839,28.112151498161566
902,12.0
903,23.25
1051,1455.3226441182383
1313,0.0
1078,1309790.3797064144
2,1, 1, 1, 0, 8,30.00,45.00,Tuesday
7,0.75
8,73.0
9,3.175
10,182.5
11,9.25
12,242.5
13,0.0
838,18.27462295506988
839,28.290999789252698
902,12.0
903,27.51786231994629
1051,1525.3110122150965
1313,0.0
1078,1372779.910993587
2,1, 1, 1, 0, 8,45.00,60.00,Tuesday
7,0.5
8,73.0
9,3.3
10,190.0
11,17.5
12,352.0
13,0.0
838,18.1786520506964
839,28.33974694532041
902,12.000000000000002
903,24.899604797363285
1051,1603.9475216314534
1313,0.0
1078,1443552.769468308
2,1, 1, 1, 0, 9, 0.00,15.00,Tuesday
7,1.8
8,67.75
9,3.3
10,217.5
11,25.75
12,461.5
13,20.0
838,19.310382251585757
839,27.4219326816718
902,18.38114356994629
903,23.414522171020508
1051,3727.7059044478738
1313,0.0
1078,3354935.3140030857
2,1, 1, 1, 0, 9,15.00,30.00,Tuesday
7,3.1
8,62.5
9,3.3
10,245.0
11,34.0
12,571.0
13,20.0
838,20.327248144969367
839,26.943756312444652
902,12.000000000000007
903,25.216438293457045
1051,1045.290651655221
1313,0.0
1078,940761.5864896982
2,1, 1, 1, 0, 9,30.00,45.00,Tuesday
7,4.4
8,57.25
9,3.3
10,272.5
11,41.5
12,605.75
13,20.0
838,21.00292336739684
839,27.200264310456348
902,12.000000000000004
903,23.250000000000007
1051,117.94755741219026
1313,0.0
1078,106152.80167097121
2,1, 1, 1, 0, 9,45.00,60.00,Tuesday
7,5.7
8,52.0
9,3.3
10,300.0
11,49.0
12,640.5
13,20.0
838,21.573358059942294
839,27.721603164577516
902,12.82857608795166
903,23.25
1051,117.94755741219025
1313,0.0
1078,106152.80167097122
2,1, 1, 1, 0,10, 0.00,15.00,Tuesday
7,6.0
8,50.75
9,3.6499999999999995
10,295.0
11,56.5
12,675.25
13,20.0
838,22.482182309111952
839,27.49605019192976
902,12.0
903,24.756101608276367
1051,450.69937738348676
1313,0.0
1078,405629.4396451381
2,1, 1, 1, 0,10,15.00,30.00,Tuesday
7,6.300000000000001
8,49.5
9,4.0
10,290.0
11,64.0
12,710.0
13,20.0
838,23.234523887178113
839,27.61477083565534
902,12.0
903,25.145851135253906
1051,117.94755741219024
1313,0.0
1078,106152.80167097121
2,1, 1, 1, 0,10,30.00,45.00,Tuesday
7,6.6000000000000005
8,48.25
9,4.3500000000000005
10,285.0
11,76.25
12,707.75
13,20.0
838,23.2490059129554
839,28.783725463652935
902,12.0
903,23.25
1051,125.53507896309384
1313,0.0
1078,112981.57106678447
2,1, 1, 1, 0,10,45.00,60.00,Tuesday
7,6.9
8,47.0
9,4.7
10,280.0
11,88.5
12,705.5
13,20.0
838,23.249002968335972
839,29.09645812628858
902,12.0
903,23.25
1051,117.94755741219025
1313,0.0
1078,106152.80167097122
2,1, 1, 1, 0,11, 0.00,15.00,Tuesday
7,7.65
8,46.25
9,5.1000000000000005
10,240.0
11,100.75
12,703.25
13,20.0
838,23.964812992453965
839,28.8278265573951
902,12.7929105758667
903,24.440683364868164
1051,117.94755741219024
1313,0.0
1078,106152.80167097121
2,1, 1, 1, 0,11,15.00,30.00,Tuesday
7,8.4
8,45.5
9,5.5
10,200.0
11,113.0
12,701.0
13,20.0
838,24.77256618821668
839,28.67976032438009
902,11.999999999999995
903,28.44937133789061
1051,137.21043437983317
1313,0.0
1078,123489.39094184991
2,1, 1, 1, 0,11,30.00,45.00,Tuesday
7,9.15
8,44.75
9,5.8999999999999995
10,160.0
11,112.25
12,748.75
13,20.0
838,24.27638399089506
839,29.05291805715533
902,13.747751235961918
903,24.26880836486817
1051,153.3953364020707
1313,0.0
1078,138055.80276186363
2,1, 1, 1, 0,11,45.00,60.00,Tuesday
7,9.9
8,44.0
9,6.3
10,120.0
11,111.5
12,796.5
13,20.0
838,24.876815500594375
839,28.629246982445906
902,12.0
903,25.011240005493164
1051,117.94755741219024
1313,0.0
1078,106152.80167097121
2,1, 1, 1, 0,12, 0.00,15.00,Tuesday
7,10.625
8,41.5
9,6.3999999999999995
10,120.0
11,110.75
12,844.25
13,16.0
838,25.015660502502385
839,28.50349310754769
902,12.0
903,25.01958465576172
1051,117.94755741219025
1313,0.0
1078,106152.80167097122
2,1, 1, 1, 0,12,15.00,30.00,Tuesday
7,11.350000000000001
8,39.0
9,6.5
10,120.0
11,110.0
12,892.0
13,16.0
838,23.6000367330288
839,27.99746383843138
902,12.000000000000002
903,23.463628768920902
1051,568.0330400018247
1313,0.0
1078,511229.73600164225
2,1, 1, 1, 0,12,30.00,45.00,Tuesday
7,12.075000000000001
8,36.5
9,6.6000000000000005
10,120.0
11,121.5
12,846.75
13,16.0
838,23.264611361128175
839,26.5244998518643
902,19.96931266784668
903,23.25
1051,559.7338781532517
1313,0.0
1078,503760.4903379264
2,1, 1, 1, 0,12,45.00,60.00,Tuesday
7,12.8
8,34.0
9,6.7
10,120.0
11,133.0
12,801.5
13,16.0
838,23.24953166563187
839,24.601101693153836
902,23.25
903,23.25
1051,777.3687028900277
1313,0.0
1078,699631.8326010249
2,1, 1, 1, 0,13, 0.00,15.00,Tuesday
7,13.125000000000002
8,33.25
9,6.7
10,100.0
11,144.5
12,756.25
13,8.0
838,23.249254995529277
839,23.45933610507138
902,15.277935028076172
903,23.25
1051,726.3683598843395
1313,0.0
1078,653731.5238959056
2,1, 1, 1, 0,13,15.00,30.00,Tuesday
7,13.45
8,32.5
9,6.7
10,80.0
11,156.0
12,711.0
13,8.0
838,24.3669181360489
839,22.229920120145707
902,23.249999999999996
903,28.268680572509766
1051,117.94755741219024
1313,0.0
1078,106152.80167097122
2,1, 1, 1, 0,13,30.00,45.00,Tuesday
7,13.774999999999999
8,31.75
9,6.7
10,60.0
11,135.0
12,776.25
13,8.0
838,25.00675433116135
839,21.576722699850723
902,12.329271316528317
903,25.119119644165036
1051,261.77765844353496
1313,0.0
1078,235599.89259918145
2,1, 1, 1, 0,13,45.00,60.00,Tuesday
7,14.1
8,31.0
9,6.7
10,40.0
11,114.0
12,841.5
13,8.0
838,23.43478838999649
839,22.102857137004712
902,23.25
903,23.25
1051,1713.4052548081786
1313,0.0
1078,1542064.729327361
2,1, 1, 1, 0,14, 0.00,15.00,Tuesday
7,14.125
8,30.75
9,6.15
10,17.5
11,93.0
12,906.75
13,16.0
838,23.258573983281764
839,21.770532541380835
902,14.421871185302734
903,23.25
1051,1209.204787322377
1313,0.0
1078,1088284.308590139
2,1, 1, 1, 0,14,15.00,30.00,Tuesday
7,14.149999999999999
8,30.5
9,5.6
10,355.0
11,72.0
12,972.0
13,16.0
838,24.16316879281368
839,21.040879607670526
902,21.738414764404297
903,24.269372940063477
1051,494.30051931441994
1313,0.0
1078,444870.46738297795
2,1, 1, 1, 0,14,30.00,45.00,Tuesday
7,14.174999999999999
8,30.25
9,5.05
10,332.5
11,68.0
12,973.75
13,16.0
838,25.596201858563447
839,20.3284309703457
902,12.0
903,30.0
1051,117.94755741219024
1313,0.0
1078,106152.8016709712
2,1, 1, 1, 0,14,45.00,60.00,Tuesday
7,14.2
8,30.0
9,4.5
10,310.0
11,64.0
12,975.5
13,16.0
838,24.680936870886622
839,21.188174978106947
902,12.000000000000002
903,24.648706436157227
1051,1305.9770151526332
1313,0.0
1078,1175379.3136373698
2,1, 1, 1, 0,15, 0.00,15.00,Tuesday
7,14.399999999999999
8,29.75
9,4.375
10,305.0
11,60.0
12,977.25
13,20.0
838,23.46879149241109
839,22.13960920418885
902,23.25
903,23.338924407958984
1051,2061.3010938019074
1313,0.0
1078,1855170.9844217165
2,1, 1, 1, 0,15,15.00,30.00,Tuesday
7,14.6
8,29.5
9,4.25
10,300.0
11,56.0
12,979.0
13,20.0
838,25.17070773782624
839,21.16935938934074
902,17.78333091735841
903,27.901176452636733
1051,121.64882051594778
1313,0.0
1078,109483.93846435292
2,1, 1, 1, 0,15,30.00,45.00,Tuesday
7,14.8
8,29.25
9,4.125
10,295.0
11,57.0
12,967.5
13,20.0
838,24.62695774378852
839,21.8515418892396
902,15.407842636108402
903,24.614526748657234
1051,1470.395592573862
1313,0.0
1078,1323356.0333164753
2,1, 1, 1, 0,15,45.00,60.00,Tuesday
7,15.0
8,29.0
9,4.0
10,290.0
11,58.0
12,956.0
13,20.0
838,23.410650562827986
839,22.65803759428936
902,16.786325454711914
903,23.25
1051,2392.2167838110936
1313,0.0
1078,2152995.1054299846
2,1, 1, 1, 0,16, 0.00,15.00,Tuesday
7,15.025
8,29.25
9,3.875
10,287.5
11,59.0
12,944.5
13,20.0
838,24.80081116819718
839,21.811063347250844
902,19.480525970458984
903,25.185522079467773
1051,829.9668868286119
1313,0.0
1078,746970.1981457508
2,1, 1, 1, 0,16,15.00,30.00,Tuesday
7,15.05
8,29.5
9,3.75
10,285.0
11,60.0
12,933.0
13,20.0
838,23.905962572253408
839,22.88644115417793
902,23.25
903,23.86460304260254
1051,1754.979247081855
1313,0.0
1078,1579481.3223736694
2,1, 1, 1, 0,16,30.00,45.00,Tuesday
7,15.075
8,29.75
9,3.625
10,282.5
11,55.5
12,921.0
13,20.0
838,23.29455503218531
839,23.155360220464374
902,14.058821678161621
903,23.25
1051,2113.3656624586483
1313,0.0
1078,1902029.0962127834
2,1, 1, 1, 0,16,45.00,60.00,Tuesday
7,15.1
8,30.0
9,3.5
10,280.0
11,51.0
12,909.0
13,20.0
838,24.838532389379868
839,22.14060868952537
902,17.5436763763428
903,25.265054702758828
1051,864.2549727272483
1313,0.0
1078,777829.4754545223
2,1, 1, 1, 0,17, 0.00,15.00,Tuesday
7,15.0
8,30.0
9,3.475
10,280.0
11,46.5
12,897.0
13,20.0
838,26.09875064272689
839,21.91141598594688
902,20.935073852539063
903,27.836111068725586
1051,297.23075743008917
1313,0.0
1078,267507.6816870802
2,1, 1, 1, 0,17,15.00,30.00,Tuesday
7,14.899999999999999
8,30.0
9,3.45
10,280.0
11,42.0
12,885.0
13,20.0
838,23.95614179745185
839,24.047152300592014
902,23.25
903,23.25
1051,2553.4578478986514
1313,0.0
1078,2298112.063108786
2,1, 1, 1, 0,17,30.00,45.00,Tuesday
7,14.799999999999999
8,30.0
9,3.425
10,280.0
11,31.5
12,663.75
13,20.0
838,25.34339207258784
839,23.148139967186232
902,18.171646118164087
903,28.883480072021523
1051,169.9767563175427
1313,0.0
1078,152979.08068578818
2,1, 1, 1, 0,17,45.00,60.00,Tuesday
7,14.7
8,30.0
9,3.4
10,280.0
11,21.0
12,442.5
13,20.0
838,23.514504689358482
839,24.487216175942265
902,21.346546173095668
903,23.24999999999996
1051,2008.009864768267
1313,0.0
1078,1807208.878291443
2,1, 1, 1, 0,18, 0.00,15.00,Tuesday
7,14.174999999999999
8,31.25
9,3.15
10,280.0
11,10.5
12,221.25
13,20.0
838,23.25121206106511
839,23.95029736257
902,20.136960983276367
903,23.25
1051,1589.022675155329
1313,0.0
1078,1430120.407639796
2,1, 1, 1, 0,18,15.00,30.00,Tuesday
7,13.649999999999999
8,32.5
9,2.9
10,280.0
11,0.0
12,0.0
13,20.0
838,24.99915262553867
839,22.684447597680872
902,11.999999999999996
903,29.999999999999993
1051,117.94755741219022
1313,0.0
1078,106152.80167097121
2,1, 1, 1, 0,18,30.00,45.00,Tuesday
7,13.125
8,33.75
9,2.65
10,280.0
11,0.0
12,0.0
13,20.0
838,26.277769283505187
839,22.503872434528233
902,23.250000000000007
903,29.581380844116218
1051,117.94755741219026
1313,0.0
1078,106152.80167097122
2,1, 1, 1, 0,18,45.00,60.00,Tuesday
7,12.6
8,35.0
9,2.4
10,280.0
11,0.0
12,0.0
13,20.0
838,23.817695722292914
839,24.035787992687638
902,12.000000000000028
903,23.25000000000005
1051,1181.0039102759856
1313,0.0
1078,1062903.5192483847
2,1, 1, 1, 0,19, 0.00,15.00,Tuesday
7,12.225
8,36.5
9,2.5
10,280.0
11,0.0
12,0.0
13,10.0
838,23.778207544858358
839,23.13815788116063
902,19.120803833007813
903,24.89457893371582
1051,117.94755741219025
1313,0.0
1078,106152.80167097122
2,1, 1, 1, 0,19,15.00,30.00,Tuesday
7,11.85
8,38.0
9,2.5999999999999996
10,280.0
11,0.0
12,0.0
13,10.0
838,24.494370751754
839,22.610529815878714
902,18.946537017822266
903,27.27906799316406
1051,117.94755741219024
1313,0.0
1078,106152.80167097121
2,1, 1, 1, 0,19,30.00,45.00,Tuesday
7,11.475
8,39.5
9,2.6999999999999997
10,280.0
11,0.0
12,0.0
13,10.0
838,23.471108103280898
839,23.934380077308546
902,14.354910850524902
903,23.426467895507813
1051,356.42850539703784
1313,0.0
1078,320785.65485733404
2,1, 1, 1, 0,19,45.00,60.00,Tuesday
7,11.1
8,41.0
9,2.8
10,280.0
11,0.0
12,0.0
13,10.0
838,23.262973038579737
839,24.00567914440761
902,17.240358352661133
903,23.25
1051,271.003593903714
1313,0.0
1078,243903.2345133426
2,1, 1, 1, 0,20, 0.00,15.00,Tuesday
7,11.0
8,41.0
9,2.8
10,277.5
11,0.0
12,0.0
13,2.0
838,23.250281068455642
839,23.574351231778408
902,16.49223518371582
903,23.25
1051,117.94755741219025
1313,0.0
1078,106152.80167097122
2,1, 1, 1, 0,20,15.00,30.00,Tuesday
7,10.899999999999999
8,41.0
9,2.8
10,275.0
11,0.0
12,0.0
13,2.0
838,23.249826685477412
839,23.186503966306166
902,23.25
903,23.25
1051,1318.3467135608441
1313,0.0
1078,1186512.0422047598
2,1, 1, 1, 0,20,30.00,45.00,Tuesday
7,10.799999999999999
8,41.0
9,2.8
10,272.5
11,0.0
12,0.0
13,2.0
838,23.249918058314602
839,23.03116578044275
902,21.34750747680664
903,23.25
1051,117.94755741219025
1313,0.0
1078,106152.80167097122
2,1, 1, 1, 0,20,45.00,60.00,Tuesday
7,10.7
8,41.0
9,2.8
10,270.0
11,0.0
12,0.0
13,2.0
838,23.36789833703012
839,22.850615903653036
902,12.0
903,28.09487533569336
1051,117.94755741219025
1313,0.0
1078,106152.80167097122
2,1, 1, 1, 0,21, 0.00,15.00,Tuesday
7,10.474999999999998
8,42.0
9,2.3749999999999996
10,270.0
11,0.0
12,0.0
13,2.0
838,23.204419587576812
839,23.164958460239855
902,15.891069412231445
903,24.914541244506836
1051,117.94755741219025
1313,0.0
1078,106152.80167097122
2,1, 1, 1, 0,21,15.00,30.00,Tuesday
7,10.25
8,43.0
9,1.95
10,270.0
11,0.0
12,0.0
13,2.0
838,22.8880998851039
839,23.710461273134413
902,13.174817085266113
903,23.25
1051,117.94755741219025
1313,0.0
1078,106152.80167097122
2,1, 1, 1, 0,21,30.00,45.00,Tuesday
7,10.025
8,44.0
9,1.525
10,270.0
11,0.0
12,0.0
13,2.0
838,22.6460208275365
839,24.158952350959126
902,12.0
903,23.25
1051,117.94755741219025
1313,0.0
1078,106152.80167097122
2,1, 1, 1, 0,21,45.00,60.00,Tuesday
7,9.8
8,45.0
9,1.1
10,270.0
11,0.0
12,0.0
13,2.0
838,22.478667914317
839,24.50285684334175
902,19.709243774414063
903,23.25
1051,117.94755741219025
1313,0.0
1078,106152.80167097122
2,1, 1, 1, 0,22, 0.00,15.00,Tuesday
7,9.25
8,47.0
9,1.5
10,255.0
11,0.0
12,0.0
13,0.0
838,22.21053359421117
839,24.8232931632012
902,12.0
903,24.23459815979004
1051,117.94755741219025
1313,0.0
1078,106152.80167097122
2,1, 1, 1, 0,22,15.00,30.00,Tuesday
7,8.7
8,49.0
9,1.9000000000000001
10,240.0
11,0.0
12,0.0
13,0.0
838,21.877012212956856
839,25.136722302680294
902,12.0
903,23.25
1051,117.94755741219025
1313,0.0
1078,106152.80167097122
2,1, 1, 1, 0,22,30.00,45.00,Tuesday
7,8.149999999999999
8,51.0
9,2.3000000000000003
10,225.0
11,0.0
12,0.0
13,0.0
838,22.41660601044257
839,24.230065907986837
902,23.25
903,25.95281600952148
1051,9676.685801591275
1313,0.0
1078,8709017.221432146
2,1, 1, 1, 0,22,45.00,60.00,Tuesday
7,7.6
8,53.0
9,2.7
10,210.0
11,0.0
12,0.0
13,0.0
838,22.143089149045444
839,24.531171271417776
902,14.69205093383789
903,23.25
1051,117.94755741219025
1313,0.0
1078,106152.80167097122
2,1, 1, 1, 0,23, 0.00,15.00,Tuesday
7,7.249999999999999
8,54.25
9,2.6750000000000003
10,202.5
11,0.0
12,0.0
13,0.0
838,21.739088847985148
839,25.055088339165124
902,12.0
903,27.75469207763672
1051,117.94755741219025
1313,0.0
1078,106152.80167097122
2,1, 1, 1, 0,23,15.00,30.00,Tuesday
7,6.9
8,55.5
9,2.6500000000000004
10,195.0
11,0.0
12,0.0
13,0.0
838,21.41255894741768
839,25.473477565138833
902,16.543598175048828
903,26.31393814086914
1051,117.94755741219024
1313,0.0
1078,106152.80167097121
2,1, 1, 1, 0,23,30.00,45.00,Tuesday
7,6.550000000000001
8,56.75
9,2.625
10,187.5
11,0.0
12,0.0
13,0.0
838,21.144192907846875
839,25.80675556409146
902,15.040611267089844
903,23.25
1051,117.94755741219025
1313,0.0
1078,106152.80167097122
2,1, 1, 1, 0,23,45.00,60.00,Tuesday
7,6.2
8,58.0
9,2.6
10,180.0
11,0.0
12,0.0
13,0.0
838,21.70313889599923
839,24.872487673455566
902,22.32403564453125
903,23.553092956542965
1051,9676.685801591275
1313,0.0
1078,8709017.221432146
2,1, 1, 1, 0,24, 0.00,15.00,Tuesday
7,5.65
8,60.75
9,2.725
10,167.5
11,0.0
12,0.0
13,0.0
838,21.449755484503598
839,25.183840296199598
902,12.0
903,24.491241455078125
1051,117.94755741219025
1313,0.0
1078,106152.80167097122
2,1, 1, 1, 0,24,15.00,30.00,Tuesday
7,5.1
8,63.5
9,2.85
10,155.0
11,0.0
12,0.0
13,0.0
838,21.074366052313025
839,25.708024874445925
902,14.098270416259766
903,24.60953140258789
1051,117.94755741219025
1313,0.0
1078,106152.80167097122
2,1, 1, 1, 0,24,30.00,45.00,Tuesday
7,4.55
8,66.25
9,2.975
10,142.5
11,0.0
12,0.0
13,0.0
838,20.76242945685255
839,26.14019611230021
902,12.0
903,24.224220275878906
1051,117.94755741219025
1313,0.0
1078,106152.80167097122
2,1, 1, 1, 0,24,45.00,60.00,Tuesday
7,4.0
8,69.0
9,3.1
10,130.0
11,0.0
12,0.0
13,0.0
838,20.4776132875341
839,26.509943803060388
902,12.0
903,26.772079467773438
1051,117.94755741219025
1313,0.0
1078,106152.80167097122
2,2, 1, 2, 0, 1, 0.00,15.00,Wednesday
7,3.75
8,70.25
9,2.85
10,127.5
11,0.0
12,0.0
13,0.0
838,20.25631202973622
839,26.67394506145117
902,16.30120849609375
903,23.25
1051,334.2201773884012
1313,0.0
1078,300798.1596495611
2,2, 1, 2, 0, 1,15.00,30.00,Wednesday
7,3.5
8,71.5
9,2.6
10,125.0
11,0.0
12,0.0
13,0.0
838,20.09478815925002
839,26.711921403665436
902,17.943069458007813
903,23.25
1051,309.9973600983958
1313,0.0
1078,278997.6240885562
2,2, 1, 2, 0, 1,30.00,45.00,Wednesday
7,3.25
8,72.75
9,2.35
10,122.5
11,0.0
12,0.0
13,0.0
838,19.9543148044551
839,26.740979479948844
902,12.0
903,24.772695541381836
1051,291.555962515335
1313,0.0
1078,262400.3662638015
2,2, 1, 2, 0, 1,45.00,60.00,Wednesday
7,3.0
8,74.0
9,2.1
10,120.0
11,0.0
12,0.0
13,0.0
838,19.821079299076526
839,26.796894876700893
902,12.0
903,23.25
1051,273.30342446073485
1313,0.0
1078,245973.08201466134
2,2, 1, 2, 0, 2, 0.00,15.00,Wednesday
7,3.25
8,72.75
9,2.35
10,125.0
11,0.0
12,0.0
13,0.0
838,19.689646961148533
839,26.885729220000027
902,12.0
903,23.25
1051,256.61544584940066
1313,0.0
1078,230953.90126446058
2,2, 1, 2, 0, 2,15.00,30.00,Wednesday
7,3.5
8,71.5
9,2.6
10,130.0
11,0.0
12,0.0
13,0.0
838,19.568040307171927
839,27.000729411255563
902,18.125301361083984
903,23.94075584411621
1051,1803.3507786126952
1313,0.0
1078,1623015.7007514257
2,2, 1, 2, 0, 2,30.00,45.00,Wednesday
7,3.75
8,70.25
9,2.85
10,135.0
11,0.0
12,0.0
13,0.0
838,20.03822384643898
839,26.169402612697652
902,20.26021957397461
903,24.101337432861328
1051,9776.42985309594
1313,0.0
1078,8798786.867786344
2,2, 1, 2, 0, 2,45.00,60.00,Wednesday
7,4.0
8,69.0
9,3.1
10,140.0
11,0.0
12,0.0
13,0.0
838,19.841358365457456
839,26.46730132501687
902,13.635854721069336
903,23.25
1051,117.94755741219025
1313,0.0
1078,106152.80167097122
2,2, 1, 2, 0, 3, 0.00,15.00,Wednesday
7,4.0
8,67.75
9,2.45
10,137.5
11,0.0
12,0.0
13,0.0
838,19.61901777845033
839,26.81440399456654
902,12.0
903,26.872650146484375
1051,117.94755741219024
1313,0.0
1078,106152.80167097121
2,2, 1, 2, 0, 3,15.00,30.00,Wednesday
7,4.0
8,66.5
9,1.8
10,135.0
11,0.0
12,0.0
13,0.0
838,19.462873019928743
839,27.05459877021117
902,12.0
903,30.0
1051,117.94755741219025
1313,0.0
1078,106152.80167097122
2,2, 1, 2, 0, 3,30.00,45.00,Wednesday
7,4.0
8,65.25
9,1.15
10,132.5
11,0.0
12,0.0
13,0.0
838,19.356334834497456
839,27.209004194271625
902,12.0
903,23.25
1051,117.94755741219025
1313,0.0
1078,106152.80167097122
2,2, 1, 2, 0, 3,45.00,60.00,Wednesday
7,4.0
8,64.0
9,0.5
10,130.0
11,0.0
12,0.0
13,0.0
838,19.27854447263497
839,27.317113736632454
902,14.013612747192383
903,23.25
1051,117.94755741219025
1313,0.0
1078,106152.80167097122
2,2, 1, 2, 0, 4, 0.00,15.00,Wednesday
7,4.25
8,61.75
9,1.15
10,130.0
11,0.0
12,0.0
13,0.0
838,19.194769932874614
839,27.432953351012674
902,12.0
903,23.25
1051,117.94755741219025
1313,0.0
1078,106152.80167097122
2,2, 1, 2, 0, 4,15.00,30.00,Wednesday
7,4.5
8,59.5
9,1.8
10,130.0
11,0.0
12,0.0
13,0.0
838,19.10263568987802
839,27.5571346556002
902,12.0
903,23.25
1051,117.94755741219025
1313,0.0
1078,106152.80167097122
2,2, 1, 2, 0, 4,30.00,45.00,Wednesday
7,4.75
8,57.25
9,2.45
10,130.0
11,0.0
12,0.0
13,0.0
838,19.008012546598742
839,27.678576571688556
902,12.0
903,23.25
1051,117.94755741219025
1313,0.0
1078,106152.80167097122
2,2, 1, 2, 0, 4,45.00,60.00,Wednesday
7,5.0
8,55.0
9,3.1
10,130.0
11,0.0
12,0.0
13,0.0
838,18.91040040777424
839,27.810344248627068
902,17.53943634033203
903,23.25
1051,1834.6708725063795
1313,0.0
1078,1651203.7852557418
2,2, 1, 2, 0, 5, 0.00,15.00,Wednesday
7,4.75
8,56.0
9,2.575
10,127.5
11,0.0
12,0.0
13,0.0
838,18.810042784996334
839,27.948657306910917
902,12.0
903,23.25
1051,165.30068211559959
1313,0.0
1078,148770.61390403964
2,2, 1, 2, 0, 5,15.00,30.00,Wednesday
7,4.5
8,57.0
9,2.05
10,125.0
11,0.0
12,0.0
13,0.0
838,18.737681360946148
839,28.044450254698823
902,12.0
903,24.090898513793945
1051,189.09213930018024
1313,0.0
1078,170182.9253701622
2,2, 1, 2, 0, 5,30.00,45.00,Wednesday
7,4.25
8,58.0
9,1.525
10,122.5
11,0.0
12,0.0
13,0.0
838,18.68224204523675
839,28.118367704217345
902,12.059770584106445
903,29.609943389892578
1051,217.78795169759186
1313,0.0
1078,196009.15652783267
2,2, 1, 2, 0, 5,45.00,60.00,Wednesday
7,4.0
8,59.0
9,1.0
10,120.0
11,0.0
12,0.0
13,0.0
838,18.63283942574841
839,28.189296930191095
902,13.993791580200195
903,27.747283935546875
1051,249.7253245737197
1313,0.0
1078,224752.79211634773
2,2, 1, 2, 0, 6, 0.00,15.00,Wednesday
7,4.0
8,59.0
9,1.125
10,120.0
11,0.0
12,0.0
13,0.0
838,19.06636048373737
839,27.42603036107702
902,22.83418846130371
903,27.443695068359375
1051,9851.808751821862
1313,0.0
1078,8866627.876639673
2,2, 1, 2, 0, 6,15.00,30.00,Wednesday
7,4.0
8,59.0
9,1.25
10,120.0
11,0.0
12,0.0
13,0.0
838,18.88484603251475
839,27.724024456043765
902,12.0
903,30.0
1051,290.03230298800895
1313,0.0
1078,261029.07268920803
2,2, 1, 2, 0, 6,30.00,45.00,Wednesday
7,4.0
8,59.0
9,1.375
10,120.0
11,0.0
12,0.0
13,0.0
838,19.203360663720495
839,27.16519657024412
902,19.692283630371094
903,28.571083068847656
1051,9548.526415984019
1313,0.0
1078,8593673.774385618
2,2, 1, 2, 0, 6,45.00,60.00,Wednesday
7,4.0
8,59.0
9,1.5
10,120.0
11,0.0
12,0.0
13,0.0
838,18.96250361432411
839,27.560903640247055
902,12.0
903,25.974298477172848
1051,293.3811777832731
1313,0.0
1078,264043.0600049458
2,2, 1, 2, 0, 7, 0.00,15.00,Wednesday
7,4.5
8,57.0
9,1.65
10,117.5
11,0.0
12,0.0
13,0.0
838,19.424319737102856
839,26.69795799476338
902,19.659420013427734
903,23.25
1051,9469.652765521885
1313,0.0
1078,8522687.488969699
2,2, 1, 2, 0, 7,15.00,30.00,Wednesday
7,5.0
8,55.0
9,1.8
10,115.0
11,0.0
12,0.0
13,0.0
838,19.1841775794154
839,27.003675982136688
902,12.0
903,27.02039909362793
1051,884.1015493257937
1313,0.0
1078,795691.3943932144
2,2, 1, 2, 0, 7,30.00,45.00,Wednesday
7,5.5
8,53.0
9,1.9500000000000002
10,112.5
11,0.0
12,0.0
13,0.0
838,19.094738076309586
839,26.99352469354534
902,19.09427833557129
903,30.0
1051,6315.060699212123
1313,0.0
1078,5683554.629290913
2,2, 1, 2, 0, 7,45.00,60.00,Wednesday
7,6.0
8,51.0
9,2.1
10,110.0
11,0.0
12,0.0
13,0.0
838,18.95561254927145
839,27.111832989542357
902,17.1251220703125
903,23.590665817260742