Program Version,EnergyPlus, Version 25.1.0-68a4a7c774, YMD=2026.04.16 09:49
1,5,Environment Title[],Latitude[deg],Longitude[deg],Time Zone[],Elevation[m]
2,8,Day of Simulation[],Month[],Day of Month[],DST Indicator[1=yes 0=no],Hour[],StartMinute[],EndMinute[],DayType
3,5,Cumulative Day of Simulation[],Month[],Day of Month[],DST Indicator[1=yes 0=no],DayType  ! When Daily Report Variables Requested
4,2,Cumulative Days of Simulation[],Month[]  ! When Monthly Report Variables Requested
5,1,Cumulative Days of Simulation[] ! When Run Period Report Variables Requested
6,1,Calendar Year of Simulation[] ! When Annual Report Variables Requested
7,1,Environment,Site Outdoor Air Drybulb Temperature [C] !TimeStep
8,1,Environment,Site Outdoor Air Relative Humidity [%] !TimeStep
9,1,Environment,Site Wind Speed [m/s] !TimeStep
10,1,Environment,Site Wind Direction [deg] !TimeStep
11,1,Environment,Site Diffuse Solar Radiation Rate per Area [W/m2] !TimeStep
12,1,Environment,Site Direct Solar Radiation Rate per Area [W/m2] !TimeStep
13,1,SPACE5-1,Zone People Occupant Count [] !TimeStep
838,1,SPACE5-1,Zone Air Temperature [C] !TimeStep
839,1,SPACE5-1,Zone Air Relative Humidity [%] !TimeStep
902,1,SPACE5-1,Zone Thermostat Heating Setpoint Temperature [C] !TimeStep
903,1,SPACE5-1,Zone Thermostat Cooling Setpoint Temperature [C] !TimeStep
1051,1,Whole Building,Facility Total HVAC Electricity Demand Rate [W] !TimeStep
1313,1,Site,Environmental Impact Total CO2 Emissions Carbon Equivalent Mass [kg] !TimeStep
1078,1,Electricity:HVAC [J] !TimeStep
End of Data Dictionary
1,RUNPERIOD 1,  32.17,-110.88,  -7.00, 809.00
2,1, 1, 1, 0, 1, 0.00,15.00,Tuesday
7,4.4
8,65.0
9,3.875
10,145.0
11,0.0
12,0.0
13,0.0
838,19.952078551521716
839,28.21567034315664
902,12.8
903,40.0
1051,117.94755741219025
1313,0.0
1078,106152.80167097122
2,1, 1, 1, 0, 1,15.00,30.00,Tuesday
7,4.8
8,61.0
9,4.65
10,160.0
11,0.0
12,0.0
13,0.0
838,19.810963307962222
839,28.269684017603552
902,12.0
903,30.0
1051,117.94755741219025
1313,0.0
1078,106152.80167097122
2,1, 1, 1, 0, 1,30.00,45.00,Tuesday
7,5.199999999999999
8,57.0
9,5.425000000000001
10,175.0
11,0.0
12,0.0
13,0.0
838,20.285610934165014
839,27.30706094541655
902,23.25
903,25.92393112182617
1051,9676.685801591275
1313,0.0
1078,8709017.221432146
2,1, 1, 1, 0, 1,45.00,60.00,Tuesday
7,5.6
8,53.0
9,6.2
10,190.0
11,0.0
12,0.0
13,0.0
838,20.052743912282878
839,27.51847924265108
902,17.84638023376465
903,26.941364288330078
1051,117.94755741219025
1313,0.0
1078,106152.80167097122
2,1, 1, 1, 0, 2, 0.00,15.00,Tuesday
7,5.35
8,54.25
9,6.050000000000001
10,192.5
11,0.0
12,0.0
13,0.0
838,19.782290088253017
839,27.84498848527067
902,17.514915466308594
903,27.302299499511715
1051,117.94755741219024
1313,0.0
1078,106152.80167097121
2,1, 1, 1, 0, 2,15.00,30.00,Tuesday
7,5.1
8,55.5
9,5.9
10,195.0
11,0.0
12,0.0
13,0.0
838,19.567926816050676
839,28.009567968571464
902,19.246253967285156
903,26.59311294555664
1051,4856.2080375947235
1313,0.0
1078,4370587.233835251
2,1, 1, 1, 0, 2,30.00,45.00,Tuesday
7,4.85
8,56.75
9,5.749999999999999
10,197.5
11,0.0
12,0.0
13,0.0
838,19.44421674323711
839,28.08521575221203
902,12.0
903,24.636089324951172
1051,117.94755741219025
1313,0.0
1078,106152.80167097122
2,1, 1, 1, 0, 2,45.00,60.00,Tuesday
7,4.6
8,58.0
9,5.6
10,200.0
11,0.0
12,0.0
13,0.0
838,19.850799320503565
839,27.289481230400906
902,19.927228927612305
903,25.397321701049805
1051,8020.976456339887
1313,0.0
1078,7218878.810705898
2,1, 1, 1, 0, 3, 0.00,15.00,Tuesday
7,4.375
8,59.5
9,5.199999999999999
10,187.5
11,0.0
12,0.0
13,0.0
838,20.208612616489386
839,26.620254182876224
902,21.119312286376953
903,23.89453887939453
1051,9676.685801591275
1313,0.0
1078,8709017.221432146
2,1, 1, 1, 0, 3,15.00,30.00,Tuesday
7,4.15
8,61.0
9,4.8
10,175.0
11,0.0
12,0.0
13,0.0
838,19.878546465167666
839,27.10359950295034
902,15.840975761413574
903,25.75719451904297
1051,117.94755741219025
1313,0.0
1078,106152.80167097122
2,1, 1, 1, 0, 3,30.00,45.00,Tuesday
7,3.9250000000000003
8,62.5
9,4.4
10,162.5
11,0.0
12,0.0
13,0.0
838,19.54899523645406
839,27.52772348114982
902,17.642244338989258
903,29.350505828857422
1051,183.88308959637632
1313,0.0
1078,165494.7806367387
2,1, 1, 1, 0, 3,45.00,60.00,Tuesday
7,3.7
8,64.0
9,4.0
10,150.0
11,0.0
12,0.0
13,0.0
838,19.395852313454945
839,27.697968716055918
902,14.01211929321289
903,24.73390769958496
1051,174.32398800265537
1313,0.0
1078,156891.58920238982
2,1, 1, 1, 0, 4, 0.00,15.00,Tuesday
7,3.325
8,65.5
9,3.75
10,147.5
11,0.0
12,0.0
13,0.0
838,19.781175856778738
839,26.981478678568806
902,20.581945419311523
903,27.802902221679684
1051,9718.671742909122
1313,0.0
1078,8746804.568618208
2,1, 1, 1, 0, 4,15.00,30.00,Tuesday
7,2.95
8,67.0
9,3.5
10,145.0
11,0.0
12,0.0
13,0.0
838,20.121663020531713
839,26.360075276933525
902,23.25
903,26.090246200561523
1051,9720.129611469987
1313,0.0
1078,8748116.650322987
2,1, 1, 1, 0, 4,30.00,45.00,Tuesday
7,2.575
8,68.5
9,3.25
10,142.5
11,0.0
12,0.0
13,0.0
838,20.362815875283815
839,25.9092094326935
902,22.839887619018555
903,24.760562896728516
1051,9723.683879354307
1313,0.0
1078,8751315.491418874
2,1, 1, 1, 0, 4,45.00,60.00,Tuesday
7,2.2
8,70.0
9,3.0
10,140.0
11,0.0
12,0.0
13,0.0
838,19.942528346278483
839,26.533253587471542
902,14.26821517944336
903,25.165418624877933
1051,166.6688910383445
1313,0.0
1078,150002.00193451004
2,1, 1, 1, 0, 5, 0.00,15.00,Tuesday
7,1.9500000000000002
8,71.0
9,2.975
10,157.5
11,0.0
12,0.0
13,0.0
838,20.209562785296896
839,26.036179942337526
902,23.25
903,23.4665584564209
1051,9728.965778988619
1313,0.0
1078,8756069.201089758
2,1, 1, 1, 0, 5,15.00,30.00,Tuesday
7,1.7000000000000002
8,72.0
9,2.95
10,175.0
11,0.0
12,0.0
13,0.0
838,19.88439837041178
839,26.51291666606715
902,13.413540840148926
903,27.510292053222656
1051,212.78421889740838
1313,0.0
1078,191505.79700766754
2,1, 1, 1, 0, 5,30.00,45.00,Tuesday
7,1.45
8,73.0
9,2.925
10,192.5
11,0.0
12,0.0
13,0.0
838,19.629517005508138
839,26.88926182696717
902,12.9854154586792
903,24.917428970336914
1051,252.4607585699376
1313,0.0
1078,227214.68271294388
2,1, 1, 1, 0, 5,45.00,60.00,Tuesday
7,1.2
8,74.0
9,2.9
10,210.0
11,0.0
12,0.0
13,0.0
838,19.692718710931572
839,26.71893690577531
902,19.692995071411133
903,29.017545700073242
1051,7371.726499096332
1313,0.0
1078,6634553.849186697
2,1, 1, 1, 0, 6, 0.00,15.00,Tuesday
7,1.0999999999999999
8,75.0
9,2.775
10,210.0
11,0.0
12,0.0
13,0.0
838,19.459103970991467
839,27.07394338112791
902,14.175018310546875
903,27.047212600708008
1051,304.2715509200613
1313,0.0
1078,273844.39582805516
2,1, 1, 1, 0, 6,15.00,30.00,Tuesday
7,1.0
8,76.0
9,2.65
10,210.0
11,0.0
12,0.0
13,0.0
838,19.270427787181596
839,27.353402738347775
902,16.969594955444336
903,23.25
1051,317.9475574121903
1313,0.0
1078,286152.8016709712
2,1, 1, 1, 0, 6,30.00,45.00,Tuesday
7,0.9000000000000001
8,77.0
9,2.525
10,210.0
11,0.0
12,0.0
13,0.0
838,19.150202133824553
839,27.531907839741983
902,17.050025939941406
903,23.25
1051,366.1316790599491
1313,0.0
1078,329518.51115395414
2,1, 1, 1, 0, 6,45.00,60.00,Tuesday
7,0.8
8,78.0
9,2.4
10,210.0
11,0.0
12,0.0
13,0.0
838,19.044140809539716
839,27.68712237767918
902,12.0
903,25.847293853759766
1051,427.3131121485836
1313,0.0
1078,384581.80093372526
2,1, 1, 1, 0, 7, 0.00,15.00,Tuesday
7,0.9750000000000001
8,76.75
9,2.5
10,197.5
11,0.0
12,0.0
13,0.0
838,19.452232630688
839,26.90833625505706
902,23.25
903,29.54625701904297
1051,10824.927933753332
1313,0.0
1078,9742435.140377996
2,1, 1, 1, 0, 7,15.00,30.00,Tuesday
7,1.15
8,75.5
9,2.5999999999999996
10,185.0
11,0.0
12,0.0
13,0.0
838,19.235184507842856
839,27.17098768552452
902,13.023038864135742
903,25.357349395751953
1051,1226.2104300909336
1313,0.0
1078,1103589.3870818405
2,1, 1, 1, 0, 7,30.00,45.00,Tuesday
7,1.325
8,74.25
9,2.6999999999999997
10,172.5
11,0.0
12,0.0
13,0.0
838,19.020124058416293
839,27.439808740210296
902,15.783533096313475
903,23.930309295654297
1051,1199.1647352774562
1313,0.0
1078,1079248.2617497104
2,1, 1, 1, 0, 7,45.00,60.00,Tuesday
7,1.5
8,73.0
9,2.8
10,160.0
11,0.0
12,0.0
13,0.0
838,18.866056230946768
839,27.6002400246846
902,13.4024019241333
903,27.490859985351563
1051,1174.9367170455237
1313,0.0
1078,1057443.0453409713
2,1, 1, 1, 0, 8, 0.00,15.00,Tuesday
7,1.25
8,73.0
9,2.925
10,167.5
11,0.0
12,0.0
13,0.0
838,19.24267179068929
839,26.86433799233526
902,21.2056999206543
903,26.174198150634766
1051,10826.132245327133
1313,0.0
1078,9743519.020794418
2,1, 1, 1, 0, 8,15.00,30.00,Tuesday
7,1.0
8,73.0
9,3.05
10,175.0
11,1.0
12,133.0
13,0.0
838,19.574613178369276
839,26.215806202868535
902,23.25
903,23.25
1051,10886.190412313827
1313,0.0
1078,9797571.371082442
2,1, 1, 1, 0, 8,30.00,45.00,Tuesday
7,0.75
8,73.0
9,3.175
10,182.5
11,9.25
12,242.5
13,0.0
838,19.21465341817119
839,26.69823523320607
902,12.0
903,28.36382293701172
1051,1381.5541677335755
1313,0.0
1078,1243398.7509602183
2,1, 1, 1, 0, 8,45.00,60.00,Tuesday
7,0.5
8,73.0
9,3.3
10,190.0
11,17.5
12,352.0
13,0.0
838,18.930296448904144
839,26.972206769575063
902,12.0
903,23.25
1051,1459.0127845377458
1313,0.0
1078,1313111.506083971
2,1, 1, 1, 0, 9, 0.00,15.00,Tuesday
7,1.8
8,67.75
9,3.3
10,217.5
11,25.75
12,461.5
13,20.0
838,20.482662459088736
839,25.551238928288342
902,23.249999999999993
903,28.96499252319335
1051,9660.015424228233
1313,0.0
1078,8694013.88180541
2,1, 1, 1, 0, 9,15.00,30.00,Tuesday
7,3.1
8,62.5
9,3.3
10,245.0
11,34.0
12,571.0
13,20.0
838,21.87897230900853
839,24.746268185899915
902,22.28502655029297
903,30.0
1051,7991.596790674603
1313,0.0
1078,7192437.111607141
2,1, 1, 1, 0, 9,30.00,45.00,Tuesday
7,4.4
8,57.25
9,3.3
10,272.5
11,41.5
12,605.75
13,20.0
838,22.392418123698665
839,25.518541943456412
902,14.103244781494144
903,26.13061141967774
1051,1114.3631699674083
1313,0.0
1078,1002926.8529706673
2,1, 1, 1, 0, 9,45.00,60.00,Tuesday
7,5.7
8,52.0
9,3.3
10,300.0
11,49.0
12,640.5
13,20.0
838,22.820949632425247
839,27.352517459800218
902,12.0
903,27.103221893310547
1051,850.1753574021013
1313,0.0
1078,765157.8216618912
2,1, 1, 1, 0,10, 0.00,15.00,Tuesday
7,6.0
8,50.75
9,3.6499999999999995
10,295.0
11,56.5
12,675.25
13,20.0
838,23.7296657386322
839,27.248542815275837
902,23.249999999999996
903,27.719261169433587
1051,4783.302690550061
1313,0.0
1078,4304972.421495054
2,1, 1, 1, 0,10,15.00,30.00,Tuesday
7,6.300000000000001
8,49.5
9,4.0
10,290.0
11,64.0
12,710.0
13,20.0
838,24.38022573752554
839,27.653139136821363
902,20.87943458557129
903,27.86233139038086
1051,682.4048453096782
1313,0.0
1078,614164.3607787103
2,1, 1, 1, 0,10,30.00,45.00,Tuesday
7,6.6000000000000005
8,48.25
9,4.3500000000000005
10,285.0
11,76.25
12,707.75
13,20.0
838,24.743035187278473
839,28.278050544984993
902,14.996596336364746
903,24.981571197509766
1051,117.94755741219026
1313,0.0
1078,106152.80167097122
2,1, 1, 1, 0,10,45.00,60.00,Tuesday
7,6.9
8,47.0
9,4.7
10,280.0
11,88.5
12,705.5
13,20.0
838,25.257740753009237
839,29.541308344585467
902,20.472484588623047
903,27.906646728515625
1051,246.80974866892154
1313,0.0
1078,222128.77380202938
2,1, 1, 1, 0,11, 0.00,15.00,Tuesday
7,7.65
8,46.25
9,5.1000000000000005
10,240.0
11,100.75
12,703.25
13,20.0
838,25.725566594552756
839,30.182931763664076
902,12.64003276824951
903,27.930931091308594
1051,117.94755741219024
1313,0.0
1078,106152.80167097121
2,1, 1, 1, 0,11,15.00,30.00,Tuesday
7,8.4
8,45.5
9,5.5
10,200.0
11,113.0
12,701.0
13,20.0
838,23.576601912280584
839,30.582083675842245
902,23.249999999999993
903,23.249999999999993
1051,683.5252334079804
1313,0.0
1078,615172.7100671824
2,1, 1, 1, 0,11,30.00,45.00,Tuesday
7,9.15
8,44.75
9,5.8999999999999995
10,160.0
11,112.25
12,748.75
13,20.0
838,23.617830554663882
839,29.30003193493656
902,12.000000000000004
903,23.620462417602546
1051,231.52479511183935
1313,0.0
1078,208372.3156006554
2,1, 1, 1, 0,11,45.00,60.00,Tuesday
7,9.9
8,44.0
9,6.3
10,120.0
11,111.5
12,796.5
13,20.0
838,23.358391655844535
839,28.10176048263377
902,14.838386535644531
903,23.3457088470459
1051,370.5202345336336
1313,0.0
1078,333468.21108027024
2,1, 1, 1, 0,12, 0.00,15.00,Tuesday
7,10.625
8,41.5
9,6.3999999999999995
10,120.0
11,110.75
12,844.25
13,16.0
838,23.25871875338451
839,26.677795778651358
902,18.56291389465332
903,23.25
1051,348.322193908262
1313,0.0
1078,313489.9745174358
2,1, 1, 1, 0,12,15.00,30.00,Tuesday
7,11.350000000000001
8,39.0
9,6.5
10,120.0
11,110.0
12,892.0
13,16.0
838,24.61264255682709
839,25.44415807768981
902,23.249999999999986
903,29.999999999999986
1051,117.94755741219018
1313,0.0
1078,106152.80167097122
2,1, 1, 1, 0,12,30.00,45.00,Tuesday
7,12.075000000000001
8,36.5
9,6.6000000000000005
10,120.0
11,121.5
12,846.75
13,16.0
838,23.377611108808015
839,25.321178220479258
902,12.000000000000018
903,23.250000000000036
1051,816.8407303835861
1313,0.0
1078,735156.6573452264
2,1, 1, 1, 0,12,45.00,60.00,Tuesday
7,12.8
8,34.0
9,6.7
10,120.0
11,133.0
12,801.5
13,16.0
838,24.734897552459618
839,24.028154574724525
902,16.16872787475586
903,28.517026901245117
1051,117.94755741219026
1313,0.0
1078,106152.80167097122
2,1, 1, 1, 0,13, 0.00,15.00,Tuesday
7,13.125000000000002
8,33.25
9,6.7
10,100.0
11,144.5
12,756.25
13,8.0
838,25.639349229393723
839,23.15271105256238
902,14.862182617187498
903,28.567775726318352
1051,117.94755741219024
1313,0.0
1078,106152.80167097122
2,1, 1, 1, 0,13,15.00,30.00,Tuesday
7,13.45
8,32.5
9,6.7
10,80.0
11,156.0
12,711.0
13,8.0
838,25.339691674752334
839,22.93255717523617
902,19.879375457763683
903,25.344221115112322
1051,487.3661221525496
1313,0.0
1078,438629.50993729435
2,1, 1, 1, 0,13,30.00,45.00,Tuesday
7,13.774999999999999
8,31.75
9,6.7
10,60.0
11,135.0
12,776.25
13,8.0
838,24.826198312850796
839,22.66823271908961
902,19.083848953247074
903,24.813556671142585
1051,486.0535884337359
1313,0.0
1078,437448.22959036217
2,1, 1, 1, 0,13,45.00,60.00,Tuesday
7,14.1
8,31.0
9,6.7
10,40.0
11,114.0
12,841.5
13,8.0
838,25.61104705436746
839,21.896316331250304
902,22.25708389282223
903,29.35911369323726
1051,117.94755741219012
1313,0.0
1078,106152.80167097121
2,1, 1, 1, 0,14, 0.00,15.00,Tuesday
7,14.125
8,30.75
9,6.15
10,17.5
11,93.0
12,906.75
13,16.0
838,25.998663519945303
839,21.79315773760701
902,16.791765213012695
903,26.000328063964844
1051,487.5026373693066
1313,0.0
1078,438752.373632376
2,1, 1, 1, 0,14,15.00,30.00,Tuesday
7,14.149999999999999
8,30.5
9,5.6
10,355.0
11,72.0
12,972.0
13,16.0
838,26.948444128911316
839,21.594066475989873
902,12.0
903,29.65704345703125
1051,117.94755741219025
1313,0.0
1078,106152.80167097122
2,1, 1, 1, 0,14,30.00,45.00,Tuesday
7,14.174999999999999
8,30.25
9,5.05
10,332.5
11,68.0
12,973.75
13,16.0
838,27.604786005661914
839,21.919881438509865
902,20.209281921386722
903,29.916666030883793
1051,117.94755741219026
1313,0.0
1078,106152.80167097122
2,1, 1, 1, 0,14,45.00,60.00,Tuesday
7,14.2
8,30.0
9,4.5
10,310.0
11,64.0
12,975.5
13,16.0
838,25.520857226977657
839,22.86535712897246
902,16.727895736694375
903,25.298177719116275
1051,1534.24878868312
1313,0.0
1078,1380823.9098148048
2,1, 1, 1, 0,15, 0.00,15.00,Tuesday
7,14.399999999999999
8,29.75
9,4.375
10,305.0
11,60.0
12,977.25
13,20.0
838,23.605883424889125
839,23.35188862488012
902,11.999999999999996
903,23.249999999999996
1051,2608.268411770966
1313,0.0
1078,2347441.570593869
2,1, 1, 1, 0,15,15.00,30.00,Tuesday
7,14.6
8,29.5
9,4.25
10,300.0
11,56.0
12,979.0
13,20.0
838,23.270942450029004
839,22.64401378521177
902,15.73517417907715
903,23.25
1051,1973.9796393972974
1313,0.0
1078,1776581.6754575674
2,1, 1, 1, 0,15,30.00,45.00,Tuesday
7,14.8
8,29.25
9,4.125
10,295.0
11,57.0
12,967.5
13,20.0
838,25.283599964544937
839,21.214726072787972
902,16.995382308959957
903,29.18782234191893
1051,120.68315464319123
1313,0.0
1078,108614.83917887216
2,1, 1, 1, 0,15,45.00,60.00,Tuesday
7,15.0
8,29.0
9,4.0
10,290.0
11,58.0
12,956.0
13,20.0
838,24.32055890969915
839,21.964053062749656
902,23.25
903,24.208938598632813
1051,1923.6138164345227
1313,0.0
1078,1731252.4347910704
2,1, 1, 1, 0,16, 0.00,15.00,Tuesday
7,15.025
8,29.25
9,3.875
10,287.5
11,59.0
12,944.5
13,20.0
838,23.33484526721646
839,22.396144292309547
902,12.0
903,23.25
1051,2354.4564052039223
1313,0.0
1078,2119010.76468353
2,1, 1, 1, 0,16,15.00,30.00,Tuesday
7,15.05
8,29.5
9,3.75
10,285.0
11,60.0
12,933.0
13,20.0
838,23.248610681398905
839,22.126408809042395
902,18.721879959106445
903,23.25
1051,1886.748907706902
1313,0.0
1078,1698074.0169362118
2,1, 1, 1, 0,16,30.00,45.00,Tuesday
7,15.075
8,29.75
9,3.625
10,282.5
11,55.5
12,921.0
13,20.0
838,25.1424026898319
839,20.956944169343227
902,15.295429229736314
903,29.441673278808572
1051,169.2572916204464
1313,0.0
1078,152331.56245840198
2,1, 1, 1, 0,16,45.00,60.00,Tuesday
7,15.1
8,30.0
9,3.5
10,280.0
11,51.0
12,909.0
13,20.0
838,26.521993682625112
839,20.80822538774373
902,15.792577743530298
903,28.165687561035192
1051,429.0788888724137
1313,0.0
1078,386170.99998517166
2,1, 1, 1, 0,17, 0.00,15.00,Tuesday
7,15.0
8,30.0
9,3.475
10,280.0
11,46.5
12,897.0
13,20.0
838,23.968604965755183
839,22.93675080480713
902,15.707292556762694
903,23.249999999999993
1051,2652.136472393564
1313,0.0
1078,2386922.8251542086
2,1, 1, 1, 0,17,15.00,30.00,Tuesday
7,14.899999999999999
8,30.0
9,3.45
10,280.0
11,42.0
12,885.0
13,20.0
838,25.42910659909529
839,22.067621207961956
902,21.461532592773438
903,30.0
1051,152.7262903008873
1313,0.0
1078,137453.66127079856
2,1, 1, 1, 0,17,30.00,45.00,Tuesday
7,14.799999999999999
8,30.0
9,3.425
10,280.0
11,31.5
12,663.75
13,20.0
838,26.547384115348432
839,22.06951326680338
902,23.250000000000007
903,27.065334320068366
1051,803.7516908675091
1313,0.0
1078,723376.5217807579
2,1, 1, 1, 0,17,45.00,60.00,Tuesday
7,14.7
8,30.0
9,3.4
10,280.0
11,21.0
12,442.5
13,20.0
838,24.297888667146353
839,24.044202220508154
902,12.450202941894531
903,23.96547508239746
1051,1910.1613698971155
1313,0.0
1078,1719145.2329074042
2,1, 1, 1, 0,18, 0.00,15.00,Tuesday
7,14.174999999999999
8,31.25
9,3.15
10,280.0
11,10.5
12,221.25
13,20.0
838,25.70957663506577
839,22.957320645401587
902,15.568221092224121
903,28.502052307128906
1051,117.94755741219025
1313,0.0
1078,106152.80167097122
2,1, 1, 1, 0,18,15.00,30.00,Tuesday
7,13.649999999999999
8,32.5
9,2.9
10,280.0
11,0.0
12,0.0
13,20.0
838,25.28303525906508
839,23.359485065279504
902,22.231105804443356
903,25.27999114990234
1051,584.2383860722634
1313,0.0
1078,525814.5474650373
2,1, 1, 1, 0,18,30.00,45.00,Tuesday
7,13.125
8,33.75
9,2.65
10,280.0
11,0.0
12,0.0
13,20.0
838,25.949018597471007
839,23.233972928167713
902,16.369510650634766
903,26.042165756225593
1051,150.033705771139
1313,0.0
1078,135030.3351940251
2,1, 1, 1, 0,18,45.00,60.00,Tuesday
7,12.6
8,35.0
9,2.4
10,280.0
11,0.0
12,0.0
13,20.0
838,26.923700701255665
839,23.286501738266917
902,14.90872097015381
903,27.30420684814453
1051,117.94755741219026
1313,0.0
1078,106152.80167097122
2,1, 1, 1, 0,19, 0.00,15.00,Tuesday
7,12.225
8,36.5
9,2.5
10,280.0
11,0.0
12,0.0
13,10.0
838,23.88635014952231
839,24.510525714700773
902,16.765546798706055
903,23.249999999999996
1051,944.5267433465729
1313,0.0
1078,850074.0690119157
2,1, 1, 1, 0,19,15.00,30.00,Tuesday
7,11.85
8,38.0
9,2.5999999999999996
10,280.0
11,0.0
12,0.0
13,10.0
838,23.75312084094298
839,22.977726706227436
902,23.25
903,29.17516326904297
1051,117.94755741219025
1313,0.0
1078,106152.80167097122
2,1, 1, 1, 0,19,30.00,45.00,Tuesday
7,11.475
8,39.5
9,2.6999999999999997
10,280.0
11,0.0
12,0.0
13,10.0
838,23.67034220065217
839,22.900146295091563
902,23.25
903,23.66779899597168
1051,257.54124999991586
1313,0.0
1078,231787.12499992427
2,1, 1, 1, 0,19,45.00,60.00,Tuesday
7,11.1
8,41.0
9,2.8
10,280.0
11,0.0
12,0.0
13,10.0
838,24.355656384608633
839,22.6554688081847
902,17.414691925048828
903,29.74711227416992
1051,117.94755741219024
1313,0.0
1078,106152.80167097121
2,1, 1, 1, 0,20, 0.00,15.00,Tuesday
7,11.0
8,41.0
9,2.8
10,277.5
11,0.0
12,0.0
13,2.0
838,23.24357530061023
839,23.707458440955925
902,18.142696380615234
903,23.25
1051,255.02684889141938
1313,0.0
1078,229524.16400227745
2,1, 1, 1, 0,20,15.00,30.00,Tuesday
7,10.899999999999999
8,41.0
9,2.8
10,275.0
11,0.0
12,0.0
13,2.0
838,23.42030654950338
839,23.33866361756348
902,12.0
903,25.292858123779297
1051,117.94755741219025
1313,0.0
1078,106152.80167097122
2,1, 1, 1, 0,20,30.00,45.00,Tuesday
7,10.799999999999999
8,41.0
9,2.8
10,272.5
11,0.0
12,0.0
13,2.0
838,23.805113079253864
839,22.823873291134845
902,21.56258773803711
903,25.037883758544922
1051,117.94755741219025
1313,0.0
1078,106152.80167097122
2,1, 1, 1, 0,20,45.00,60.00,Tuesday
7,10.7
8,41.0
9,2.8
10,270.0
11,0.0
12,0.0
13,2.0
838,23.91151762158587
839,22.726846578770157
902,19.702096939086914
903,27.729446411132813
1051,117.94755741219025
1313,0.0
1078,106152.80167097122
2,1, 1, 1, 0,21, 0.00,15.00,Tuesday
7,10.474999999999998
8,42.0
9,2.3749999999999996
10,270.0
11,0.0
12,0.0
13,2.0
838,23.582868205774446
839,23.213616547686286
902,12.0
903,30.0
1051,117.94755741219025
1313,0.0
1078,106152.80167097122
2,1, 1, 1, 0,21,15.00,30.00,Tuesday
7,10.25
8,43.0
9,1.95
10,270.0
11,0.0
12,0.0
13,2.0
838,23.15077146706007
839,23.869877103282207
902,18.279788970947266
903,27.2752628326416
1051,117.94755741219025
1313,0.0
1078,106152.80167097122
2,1, 1, 1, 0,21,30.00,45.00,Tuesday
7,10.025
8,44.0
9,1.525
10,270.0
11,0.0
12,0.0
13,2.0
838,23.250429621734398
839,23.75444598288748
902,23.25
903,30.0
1051,6290.572903001166
1313,0.0
1078,5661515.612701049
2,1, 1, 1, 0,21,45.00,60.00,Tuesday
7,9.8
8,45.0
9,1.1
10,270.0
11,0.0
12,0.0
13,2.0
838,23.030353783184978
839,24.114383862430834
902,21.424833297729492
903,23.28986930847168
1051,117.94755741219025
1313,0.0
1078,106152.80167097122
2,1, 1, 1, 0,22, 0.00,15.00,Tuesday
7,9.25
8,47.0
9,1.5
10,255.0
11,0.0
12,0.0
13,0.0
838,22.635867775195948
839,24.577255654748125
902,18.647018432617188
903,26.821331024169922
1051,117.94755741219025
1313,0.0
1078,106152.80167097122
2,1, 1, 1, 0,22,15.00,30.00,Tuesday
7,8.7
8,49.0
9,1.9000000000000001
10,240.0
11,0.0
12,0.0
13,0.0
838,22.28377857176423
839,24.973662463735714
902,15.620975494384764
903,23.25
1051,117.94755741219024
1313,0.0
1078,106152.80167097121
2,1, 1, 1, 0,22,30.00,45.00,Tuesday
7,8.149999999999999
8,51.0
9,2.3000000000000003
10,225.0
11,0.0
12,0.0
13,0.0
838,21.97378254970578
839,25.311274509639677
902,18.87042999267578
903,30.0
1051,117.94755741219025
1313,0.0
1078,106152.80167097122
2,1, 1, 1, 0,22,45.00,60.00,Tuesday
7,7.6
8,53.0
9,2.7
10,210.0
11,0.0
12,0.0
13,0.0
838,21.656973267519966
839,25.609688208158655
902,14.935113906860352
903,23.25
1051,117.94755741219025
1313,0.0
1078,106152.80167097122
2,1, 1, 1, 0,23, 0.00,15.00,Tuesday
7,7.249999999999999
8,54.25
9,2.6750000000000003
10,202.5
11,0.0
12,0.0
13,0.0
838,21.39584214250983
839,25.830745899564022
902,13.613532066345215
903,27.450843811035156
1051,117.94755741219025
1313,0.0
1078,106152.80167097122
2,1, 1, 1, 0,23,15.00,30.00,Tuesday
7,6.9
8,55.5
9,2.6500000000000004
10,195.0
11,0.0
12,0.0
13,0.0
838,21.18234198067868
839,26.00222098165902
902,18.054492950439453
903,29.93364906311035
1051,117.94755741219025
1313,0.0
1078,106152.80167097122
2,1, 1, 1, 0,23,30.00,45.00,Tuesday
7,6.550000000000001
8,56.75
9,2.625
10,187.5
11,0.0
12,0.0
13,0.0
838,20.988970096883175
839,26.163434950299074
902,15.526081085205078
903,29.76643180847168
1051,117.94755741219025
1313,0.0
1078,106152.80167097122
2,1, 1, 1, 0,23,45.00,60.00,Tuesday
7,6.2
8,58.0
9,2.6
10,180.0
11,0.0
12,0.0
13,0.0
838,20.80353121471555
839,26.327228290997883
902,12.0
903,23.36896514892578
1051,117.94755741219025
1313,0.0
1078,106152.80167097122
2,1, 1, 1, 0,24, 0.00,15.00,Tuesday
7,5.65
8,60.75
9,2.725
10,167.5
11,0.0
12,0.0
13,0.0
838,20.648635634062916
839,26.45705480131202
902,16.407136917114258
903,26.24048614501953
1051,117.94755741219025
1313,0.0
1078,106152.80167097122
2,1, 1, 1, 0,24,15.00,30.00,Tuesday
7,5.1
8,63.5
9,2.85
10,155.0
11,0.0
12,0.0
13,0.0
838,20.502046423544677
839,26.587834828643604
902,19.01738166809082
903,30.0
1051,1057.3107271832591
1313,0.0
1078,951579.6544649332
2,1, 1, 1, 0,24,30.00,45.00,Tuesday
7,4.55
8,66.25
9,2.975
10,142.5
11,0.0
12,0.0
13,0.0
838,20.356001643937535
839,26.72998767356444
902,19.023544311523438
903,23.999494552612305
1051,1281.2153779854204
1313,0.0
1078,1153093.8401868783
2,1, 1, 1, 0,24,45.00,60.00,Tuesday
7,4.0
8,69.0
9,3.1
10,130.0
11,0.0
12,0.0
13,0.0
838,20.221311271140205
839,26.882820820796432
902,12.0
903,26.856698989868164
1051,117.94755741219025
1313,0.0
1078,106152.80167097122
2,2, 1, 2, 0, 1, 0.00,15.00,Wednesday
7,3.75
8,70.25
9,2.85
10,127.5
11,0.0
12,0.0
13,0.0
838,20.04226669007865
839,26.998957596353
902,16.910083770751953
903,30.0
1051,313.6934586652761
1313,0.0
1078,282324.1127987485
2,2, 1, 2, 0, 1,15.00,30.00,Wednesday
7,3.5
8,71.5
9,2.6
10,125.0
11,0.0
12,0.0
13,0.0
838,19.88033341036114
839,27.046342662572254
902,17.662168502807617
903,29.445880889892578
1051,296.9044189346658
1313,0.0
1078,267213.9770411992
2,2, 1, 2, 0, 1,30.00,45.00,Wednesday
7,3.25
8,72.75
9,2.35
10,122.5
11,0.0
12,0.0
13,0.0
838,19.75238330707072
839,27.055918469556556
902,12.0
903,25.483203887939453
1051,280.5501142596613
1313,0.0
1078,252495.1028336952
2,2, 1, 2, 0, 1,45.00,60.00,Wednesday
7,3.0
8,74.0
9,2.1
10,120.0
11,0.0
12,0.0
13,0.0
838,20.240121213349184
839,26.15918520591264
902,22.731172561645504
903,26.765054702758786
1051,9811.99938686711
1313,0.0
1078,8830799.448180396
2,2, 1, 2, 0, 2, 0.00,15.00,Wednesday
7,3.25
8,72.75
9,2.35
10,125.0
11,0.0
12,0.0
13,0.0
838,20.020681530843575
839,26.42294242654485
902,13.42164421081543
903,26.56640625
1051,249.70301885634044
1313,0.0
1078,224732.71697070636
2,2, 1, 2, 0, 2,15.00,30.00,Wednesday
7,3.5
8,71.5
9,2.6
10,130.0
11,0.0
12,0.0
13,0.0
838,20.34870207721245
839,25.817696199787672
902,21.086055755615234
903,28.73311996459961
1051,9794.274988540928
1313,0.0
1078,8814847.489686836
2,2, 1, 2, 0, 2,30.00,45.00,Wednesday
7,3.75
8,70.25
9,2.85
10,135.0
11,0.0
12,0.0
13,0.0
838,20.033826182647463
839,26.249638957924322
902,12.0
903,24.542251586914063
1051,230.54472122402308
1313,0.0
1078,207490.2491016208
2,2, 1, 2, 0, 2,45.00,60.00,Wednesday
7,4.0
8,69.0
9,3.1
10,140.0
11,0.0
12,0.0
13,0.0
838,19.788288216174703
839,26.63212080697497
902,14.963448524475098
903,28.056396484375
1051,117.94755741219025
1313,0.0
1078,106152.80167097122
2,2, 1, 2, 0, 3, 0.00,15.00,Wednesday
7,4.0
8,67.75
9,2.45
10,137.5
11,0.0
12,0.0
13,0.0
838,19.62789798157413
839,26.873519852211757
902,16.436996459960938
903,30.0
1051,117.94755741219025
1313,0.0
1078,106152.80167097122
2,2, 1, 2, 0, 3,15.00,30.00,Wednesday
7,4.0
8,66.5
9,1.8
10,135.0
11,0.0
12,0.0
13,0.0
838,19.519126115844912
839,27.02468062876874
902,13.704879760742188
903,30.0
1051,117.94755741219025
1313,0.0
1078,106152.80167097122
2,2, 1, 2, 0, 3,30.00,45.00,Wednesday
7,4.0
8,65.25
9,1.15
10,132.5
11,0.0
12,0.0
13,0.0
838,19.435155587736446
839,27.13341590874944
902,12.524436950683594
903,25.58892822265625
1051,117.94755741219025
1313,0.0
1078,106152.80167097122
2,2, 1, 2, 0, 3,45.00,60.00,Wednesday
7,4.0
8,64.0
9,0.5
10,130.0
11,0.0
12,0.0
13,0.0
838,19.84840617999258
839,26.43158457868269
902,22.585241317749023
903,26.5546875
1051,9676.685801591275
1313,0.0
1078,8709017.221432146
2,2, 1, 2, 0, 4, 0.00,15.00,Wednesday
7,4.25
8,61.75
9,1.15
10,130.0
11,0.0
12,0.0
13,0.0
838,19.647882249610802
839,26.738986447622892
902,13.376639366149902
903,25.868696212768555
1051,117.94755741219025
1313,0.0
1078,106152.80167097122
2,2, 1, 2, 0, 4,15.00,30.00,Wednesday
7,4.5
8,59.5
9,1.8
10,130.0
11,0.0
12,0.0
13,0.0
838,20.04494395432446
839,26.062763749620164
902,20.65869903564453
903,24.819683074951172
1051,9669.082082997827
1313,0.0
1078,8702173.874698045
2,2, 1, 2, 0, 4,30.00,45.00,Wednesday
7,4.75
8,57.25
9,2.45
10,130.0
11,0.0
12,0.0
13,0.0
838,19.758556468542288
839,26.493095236686045
902,12.0
903,30.0
1051,117.94755741219024
1313,0.0
1078,106152.80167097121
2,2, 1, 2, 0, 4,45.00,60.00,Wednesday
7,5.0
8,55.0
9,3.1
10,130.0
11,0.0
12,0.0
13,0.0
838,19.57782450310635
839,26.744021247711775
902,19.576080322265625
903,25.32381820678711
1051,5320.676735908408
1313,0.0
1078,4788609.062317567
2,2, 1, 2, 0, 5, 0.00,15.00,Wednesday
7,4.75
8,56.0
9,2.575
10,127.5
11,0.0
12,0.0
13,0.0
838,19.42496211264607
839,26.9615426340647
902,13.931775093078613
903,23.25
1051,117.94755741219024
1313,0.0
1078,106152.80167097121
2,2, 1, 2, 0, 5,15.00,30.00,Wednesday
7,4.5
8,57.0
9,2.05
10,125.0
11,0.0
12,0.0
13,0.0
838,19.302903565111727
839,27.115649461518004
902,12.0
903,30.0
1051,117.94755741219024
1313,0.0
1078,106152.80167097121
2,2, 1, 2, 0, 5,30.00,45.00,Wednesday
7,4.25
8,58.0
9,1.525
10,122.5
11,0.0
12,0.0
13,0.0
838,19.214030036285024
839,27.2385979791181
902,12.0
903,23.25
1051,117.94755741219025
1313,0.0
1078,106152.80167097122
2,2, 1, 2, 0, 5,45.00,60.00,Wednesday
7,4.0
8,59.0
9,1.0
10,120.0
11,0.0
12,0.0
13,0.0
838,19.605357059245875
839,26.574802528156287
902,23.25
903,24.48893165588379
1051,9701.588571850269
1313,0.0
1078,8731429.714665242
2,2, 1, 2, 0, 6, 0.00,15.00,Wednesday
7,4.0
8,59.0
9,1.125
10,120.0
11,0.0
12,0.0
13,0.0
838,19.95016112634713
839,26.001447183608605
902,23.25
903,28.017822265625
1051,9683.214186177884
1313,0.0
1078,8714892.767560095
2,2, 1, 2, 0, 6,15.00,30.00,Wednesday
7,4.0
8,59.0
9,1.25
10,120.0
11,0.0
12,0.0
13,0.0
838,20.238817528494597
839,25.52597729930372
902,21.646472930908203
903,25.494651794433594
1051,9676.685801591273
1313,0.0
1078,8709017.221432146
2,2, 1, 2, 0, 6,30.00,45.00,Wednesday
7,4.0
8,59.0
9,1.375
10,120.0
11,0.0
12,0.0
13,0.0
838,19.852518101163906
839,26.12729611316269
902,15.345684051513672
903,30.0
1051,117.94755741219026
1313,0.0
1078,106152.80167097122
2,2, 1, 2, 0, 6,45.00,60.00,Wednesday
7,4.0
8,59.0
9,1.5
10,120.0
11,0.0
12,0.0
13,0.0
838,19.534409202826183
839,26.615995514445896
902,12.000000000000002
903,25.15907669067383
1051,123.4931669627047
1313,0.0
1078,111143.85026643424
2,2, 1, 2, 0, 7, 0.00,15.00,Wednesday
7,4.5
8,57.0
9,1.65
10,117.5
11,0.0
12,0.0
13,0.0
838,19.37896122962964
839,26.785476273821637
902,17.09843635559082
903,29.842601776123047
1051,814.7766369512951
1313,0.0
1078,733298.9732561655